SLURM_NODELIST hamsi67
NUMBER OF TASKS 1
NUMBER OF CORES=56
 Entering Gaussian System, Link 0=/arf/sw/apps/gaussian/avx2/g16/g16
 Initial command:
 /arf/sw/apps/gaussian/avx2/g16/l1.exe "/tmp/5611928/Gau-2133002.inp" -scrdir="/tmp/5611928/"
 Entering Link 1 = /arf/sw/apps/gaussian/avx2/g16/l1.exe PID=   2133003.
  
 Copyright (c) 1988-2021, Gaussian, Inc.  All Rights Reserved.
  
 This is part of the Gaussian(R) 16 program.  It is based on
 the Gaussian(R) 09 system (copyright 2009, Gaussian, Inc.),
 the Gaussian(R) 03 system (copyright 2003, Gaussian, Inc.),
 the Gaussian(R) 98 system (copyright 1998, Gaussian, Inc.),
 the Gaussian(R) 94 system (copyright 1995, Gaussian, Inc.),
 the Gaussian 92(TM) system (copyright 1992, Gaussian, Inc.),
 the Gaussian 90(TM) system (copyright 1990, Gaussian, Inc.),
 the Gaussian 88(TM) system (copyright 1988, Gaussian, Inc.),
 the Gaussian 86(TM) system (copyright 1986, Carnegie Mellon
 University), and the Gaussian 82(TM) system (copyright 1983,
 Carnegie Mellon University). Gaussian is a federally registered
 trademark of Gaussian, Inc.
  
 This software contains proprietary and confidential information,
 including trade secrets, belonging to Gaussian, Inc.
  
 This software is provided under written license and may be
 used, copied, transmitted, or stored only in accord with that
 written license.
  
 The following legend is applicable only to US Government
 contracts under FAR:
  
                    RESTRICTED RIGHTS LEGEND
  
 Use, reproduction and disclosure by the US Government is
 subject to restrictions as set forth in subparagraphs (a)
 and (c) of the Commercial Computer Software - Restricted
 Rights clause in FAR 52.227-19.
  
 Gaussian, Inc.
 340 Quinnipiac St., Bldg. 40, Wallingford CT 06492
  
  
 ---------------------------------------------------------------
 Warning -- This program may not be used in any manner that
 competes with the business of Gaussian, Inc. or will provide
 assistance to any competitor of Gaussian, Inc.  The licensee
 of this program is prohibited from giving any competitor of
 Gaussian, Inc. access to this program.  By using this program,
 the user acknowledges that Gaussian, Inc. is engaged in the
 business of creating and licensing software in the field of
 computational chemistry and represents and warrants to the
 licensee that it is not a competitor of Gaussian, Inc. and that
 it will not use this program in any manner prohibited above.
 ---------------------------------------------------------------
  

 Cite this work as:
 Gaussian 16, Revision C.02,
 M. J. Frisch, G. W. Trucks, H. B. Schlegel, G. E. Scuseria, 
 M. A. Robb, J. R. Cheeseman, G. Scalmani, V. Barone, 
 G. A. Petersson, H. Nakatsuji, X. Li, M. Caricato, A. V. Marenich, 
 J. Bloino, B. G. Janesko, R. Gomperts, B. Mennucci, H. P. Hratchian, 
 J. V. Ortiz, A. F. Izmaylov, J. L. Sonnenberg, D. Williams-Young, 
 F. Ding, F. Lipparini, F. Egidi, J. Goings, B. Peng, A. Petrone, 
 T. Henderson, D. Ranasinghe, V. G. Zakrzewski, J. Gao, N. Rega, 
 G. Zheng, W. Liang, M. Hada, M. Ehara, K. Toyota, R. Fukuda, 
 J. Hasegawa, M. Ishida, T. Nakajima, Y. Honda, O. Kitao, H. Nakai, 
 T. Vreven, K. Throssell, J. A. Montgomery, Jr., J. E. Peralta, 
 F. Ogliaro, M. J. Bearpark, J. J. Heyd, E. N. Brothers, K. N. Kudin, 
 V. N. Staroverov, T. A. Keith, R. Kobayashi, J. Normand, 
 K. Raghavachari, A. P. Rendell, J. C. Burant, S. S. Iyengar, 
 J. Tomasi, M. Cossi, J. M. Millam, M. Klene, C. Adamo, R. Cammi, 
 J. W. Ochterski, R. L. Martin, K. Morokuma, O. Farkas, 
 J. B. Foresman, and D. J. Fox, Gaussian, Inc., Wallingford CT, 2019.
 
 ******************************************
 Gaussian 16:  ES64L-G16RevC.02  7-Dec-2021
                21-Apr-2026 
 ******************************************
 %nprocshared=56
 Will use up to   56 processors via shared memory.
 %mem=76GB
 %chk=B10_td.chk
 ----------------------------------------------------------------------
 # td=(nstates=20) hseh1pbe/6-31g(d,p) scrf=(cpcm,solvent=dichlorometha
 ne) geom=connectivity
 ----------------------------------------------------------------------
 1/38=1,57=2,172=1/1;
 2/12=2,17=6,18=5,40=1/2;
 3/5=1,6=6,7=101,11=9,25=1,30=1,70=2101,72=9,74=-51/1,2,3,8;
 4//1;
 5/5=2,38=5,53=9/2;
 8/6=1,10=2,108=20/1;
 9/41=20,42=1,70=2/14;
 6/7=2,8=2,9=2,10=2/1;
 99/5=1,9=1/99;
 -------------------
 Title Card Required
 -------------------
 Symbolic Z-matrix:
 Charge =  0 Multiplicity = 1
 C                     0.71413  -2.49301  -0.86817 
 C                     1.48969  -3.60551  -1.27492 
 C                     2.81236  -3.31149  -1.03099 
 C                     2.86755  -2.01289  -0.48039 
 N                     1.57483  -1.54294  -0.41025 
 H                     1.39845  -0.58665  -0.10134 
 H                     1.0995   -4.52454  -1.68447 
 H                     3.66643  -3.94348  -1.22565 
 C                    -0.71446  -2.493    -0.86806 
 C                    -1.49007  -3.60565  -1.27429 
 N                    -1.57509  -1.54273  -0.41041 
 C                    -2.81272  -3.3115   -1.03037 
 H                    -1.09993  -4.5249   -1.6834 
 C                    -2.86783  -2.01268  -0.48029 
 H                    -1.39868  -0.58631  -0.10194 
 H                    -3.66681  -3.94357  -1.22467 
 C                    -4.00964  -1.31611  -0.0287 
 C                     4.00939  -1.31656  -0.02852 
 C                     4.01224   0.00511   0.40857 
 C                     5.12846   0.70772   1.00169 
 N                     2.90747   0.8183    0.31258 
 C                     4.6718    1.96189   1.26689 
 H                     6.10742   0.29655   1.20692 
 C                     3.30153   1.99131   0.80627 
 H                     5.20826   2.78938   1.71301 
 C                    -4.01244   0.0057    0.40794 
 C                    -5.12868   0.70856   1.00072 
 N                    -2.90759   0.81877   0.31189 
 C                    -4.67195   1.96275   1.26566 
 H                    -6.10771   0.29753   1.20591 
 C                    -3.30161   1.99193   0.80525 
 H                    -5.2084    2.79041   1.7115 
 N                    -1.3569    3.27327   0.24178 
 N                     1.35721   3.27302   0.24234 
 C                     5.28967  -2.06656  -0.02222 
 C                     5.48522  -3.16864   0.8114 
 C                     6.35286  -1.69134  -0.84462 
 C                     6.68294  -3.86921   0.83075 
 C                     7.55792  -2.38024  -0.84262 
 C                     7.7222   -3.47208  -0.00056 
 C                    -5.28997  -2.06604  -0.02219 
 C                    -6.35306  -1.69113  -0.84485 
 C                    -5.48565  -3.16774   0.8119 
 C                    -7.55816  -2.37997  -0.84264 
 C                    -6.6834   -3.86825   0.83146 
 C                    -7.72257  -3.47144  -0.00012 
 C                     2.50566   3.19373   0.81493 
 H                     2.9575    4.0501    1.33304 
 C                    -2.50557   3.19424   0.81396 
 H                    -2.95745   4.05074   1.33181 
 C                    -0.71031   4.48911   0.15584 
 C                    -1.38842   5.7103    0.01846 
 C                     0.71088   4.48897   0.15617 
 C                    -0.70101   6.90474  -0.11757 
 H                    -2.47147   5.72165  -0.03167 
 C                     1.38929   5.71005   0.01913 
 C                     0.70217   6.90461  -0.11723 
 H                     2.47236   5.7212   -0.03049 
 Cl                    1.59874   8.37253  -0.32592 
 Cl                   -1.59722   8.37282  -0.32673 
 F                    -6.22678  -0.65686  -1.67365 
 F                    -8.5507   -2.00522  -1.64457 
 F                    -8.87154  -4.13483   0.01069 
 F                    -6.84387  -4.90841   1.64453 
 F                    -4.51414  -3.56655   1.63131 
 F                     4.51363  -3.56776   1.63055 
 F                     6.84329  -4.90974   1.64337 
 F                     8.87114  -4.13554   0.01006 
 F                     8.55055  -2.00518  -1.64429 
 F                     6.2267   -0.6567   -1.67299 
 
 Stoichiometry    C38H14Cl2F10N6
 Framework group  C1[X(C38H14Cl2F10N6)]
 Deg. of freedom   204
 Full point group                 C1      NOp   1
 Largest Abelian subgroup         C1      NOp   1
 Largest concise Abelian subgroup C1      NOp   1
                         Standard orientation:                         
 ---------------------------------------------------------------------
 Center     Atomic      Atomic             Coordinates (Angstroms)
 Number     Number       Type             X           Y           Z
 ---------------------------------------------------------------------
      1          6           0       -0.714128   -2.493007    0.868169
      2          6           0       -1.489687   -3.605509    1.274924
      3          6           0       -2.812362   -3.311486    1.030990
      4          6           0       -2.867547   -2.012893    0.480392
      5          7           0       -1.574829   -1.542939    0.410248
      6          1           0       -1.398450   -0.586652    0.101337
      7          1           0       -1.099500   -4.524545    1.684471
      8          1           0       -3.666427   -3.943481    1.225648
      9          6           0        0.714456   -2.492995    0.868059
     10          6           0        1.490073   -3.605646    1.274294
     11          7           0        1.575093   -1.542733    0.410414
     12          6           0        2.812720   -3.311497    1.030367
     13          1           0        1.099932   -4.524897    1.683401
     14          6           0        2.867830   -2.012680    0.480291
     15          1           0        1.398675   -0.586309    0.101938
     16          1           0        3.666810   -3.943566    1.224668
     17          6           0        4.009639   -1.316114    0.028703
     18          6           0       -4.009386   -1.316558    0.028519
     19          6           0       -4.012241    0.005110   -0.408569
     20          6           0       -5.128456    0.707716   -1.001692
     21          7           0       -2.907467    0.818304   -0.312578
     22          6           0       -4.671796    1.961886   -1.266891
     23          1           0       -6.107415    0.296554   -1.206916
     24          6           0       -3.301529    1.991312   -0.806265
     25          1           0       -5.208262    2.789376   -1.713007
     26          6           0        4.012444    0.005698   -0.407942
     27          6           0        5.128684    0.708559   -1.000718
     28          7           0        2.907586    0.818772   -0.311887
     29          6           0        4.671951    1.962754   -1.265659
     30          1           0        6.107708    0.297534   -1.205911
     31          6           0        3.301608    1.991934   -0.805246
     32          1           0        5.208401    2.790406   -1.711496
     33          7           0        1.356896    3.273275   -0.241779
     34          7           0       -1.357209    3.273016   -0.242338
     35          6           0       -5.289668   -2.066556    0.022219
     36          6           0       -5.485224   -3.168638   -0.811396
     37          6           0       -6.352860   -1.691339    0.844624
     38          6           0       -6.682939   -3.869214   -0.830748
     39          6           0       -7.557916   -2.380236    0.842618
     40          6           0       -7.722204   -3.472083    0.000562
     41          6           0        5.289965   -2.066042    0.022188
     42          6           0        6.353063   -1.691134    0.844849
     43          6           0        5.485647   -3.167742   -0.811901
     44          6           0        7.558155   -2.379971    0.842644
     45          6           0        6.683398   -3.868252   -0.831458
     46          6           0        7.722570   -3.471435    0.000117
     47          6           0       -2.505656    3.193732   -0.814934
     48          1           0       -2.957497    4.050100   -1.333035
     49          6           0        2.505566    3.194239   -0.813961
     50          1           0        2.957446    4.050738   -1.331811
     51          6           0        0.710308    4.489110   -0.155841
     52          6           0        1.388420    5.710305   -0.018461
     53          6           0       -0.710884    4.488974   -0.156171
     54          6           0        0.701013    6.904743    0.117571
     55          1           0        2.471465    5.721651    0.031668
     56          6           0       -1.389285    5.710047   -0.019128
     57          6           0       -0.702165    6.904613    0.117225
     58          1           0       -2.472357    5.721196    0.030487
     59         17           0       -1.598742    8.372527    0.325921
     60         17           0        1.597215    8.372821    0.326726
     61          9           0        6.226776   -0.656856    1.673652
     62          9           0        8.550704   -2.005222    1.644568
     63          9           0        8.871543   -4.134828   -0.010694
     64          9           0        6.843873   -4.908411   -1.644526
     65          9           0        4.514136   -3.566550   -1.631311
     66          9           0       -4.513628   -3.567760   -1.630553
     67          9           0       -6.843293   -4.909740   -1.643371
     68          9           0       -8.871142   -4.135539   -0.010055
     69          9           0       -8.550551   -2.005185    1.644294
     70          9           0       -6.226698   -0.656697    1.672991
 ---------------------------------------------------------------------
 Rotational constants (GHZ):           0.0379622           0.0248612           0.0156789
 Standard basis: 6-31G(d,p) (6D, 7F)
 There are   918 symmetry adapted cartesian basis functions of A   symmetry.
 There are   918 symmetry adapted basis functions of A   symmetry.
   918 basis functions,  1714 primitive gaussians,   918 cartesian basis functions
   204 alpha electrons      204 beta electrons
       nuclear repulsion energy      7563.9441094946 Hartrees.
 NAtoms=   70 NActive=   70 NUniq=   70 SFac= 1.00D+00 NAtFMM=   60 NAOKFM=T Big=T
 Integral buffers will be    131072 words long.
 Regular integral format.
 Two-electron integral symmetry is turned on.
 ------------------------------------------------------------------------------
 Polarizable Continuum Model (PCM)
 =================================
 Model                : C-PCM.
 Atomic radii         : UFF (Universal Force Field).
 Polarization charges : Total charges.
 Charge compensation  : None.
 Solution method      : On-the-fly selection.
 Cavity type          : Scaled VdW (van der Waals Surface) (Alpha=1.100).
 Cavity algorithm     : GePol (No added spheres)
                        Default sphere list used, NSphG=   70.
                        Lebedev-Laikov grids with approx.  5.0 points / Ang**2.
                        Smoothing algorithm: York/Karplus (Gamma=1.0000).
                        Polarization charges: spherical gaussians, with
                                              point-specific exponents (IZeta= 3).
                        Self-potential: point-specific (ISelfS= 7).
                        Self-field    : sphere-specific E.n sum rule (ISelfD= 2).
 Solvent              : Dichloromethane, Eps=   8.930000 Eps(inf)=   2.028346
 ------------------------------------------------------------------------------
 One-electron integrals computed using PRISM.
 NBasis=   918 RedAO= T EigKep=  2.97D-04  NBF=   918
 NBsUse=   918 1.00D-06 EigRej= -1.00D+00 NBFU=   918
 ExpMin= 1.43D-01 ExpMax= 2.52D+04 ExpMxC= 3.78D+03 IAcc=3 IRadAn=         5 AccDes= 0.00D+00
 Harris functional with IExCor= 1009 and IRadAn=       5 diagonalized for initial guess.
 HarFok:  IExCor= 1009 AccDes= 0.00D+00 IRadAn=         5 IDoV= 1 UseB2=F ITyADJ=14
 ICtDFT=  3500011 ScaDFX=  1.000000  1.000000  1.000000  1.000000
 FoFCou: FMM=F IPFlag=           0 FMFlag=      100000 FMFlg1=        2001
         NFxFlg=           0 DoJE=T BraDBF=F KetDBF=T FulRan=T
         wScrn=  0.000000 ICntrl=       500 IOpCl=  0 I1Cent=   200000004 NGrid=           0
         NMat0=    1 NMatS0=      1 NMatT0=    0 NMatD0=    1 NMtDS0=    0 NMtDT0=    0
 Petite list used in FoFCou.
 Requested convergence on RMS density matrix=1.00D-08 within 128 cycles.
 Requested convergence on MAX density matrix=1.00D-06.
 Requested convergence on             energy=1.00D-06.
 No special actions if energy rises.
 Inv3:  Mode=1 IEnd=   100294572.
 Iteration    1 A*A^-1 deviation from unit magnitude is 3.89D-15 for   5488.
 Iteration    1 A*A^-1 deviation from orthogonality  is 3.01D-15 for   2884   2799.
 Iteration    1 A^-1*A deviation from unit magnitude is 3.77D-15 for   3803.
 Iteration    1 A^-1*A deviation from orthogonality  is 4.29D-15 for   5684   5481.
 Error on total polarization charges =  0.00952
 SCF Done:  E(RHSEH1PBE) =  -3700.67525850     A.U. after   14 cycles
            NFock= 14  Conv=0.39D-08     -V/T= 2.0065
 DoSCS=F DFT=T ScalE2(SS,OS)=  1.000000  1.000000
 ExpMin= 1.43D-01 ExpMax= 2.52D+04 ExpMxC= 3.78D+03 IAcc=3 IRadAn=         5 AccDes= 0.00D+00
 HarFok:  IExCor=  205 AccDes= 0.00D+00 IRadAn=         5 IDoV=-2 UseB2=F ITyADJ=14
 ICtDFT= 12500011 ScaDFX=  1.000000  1.000000  1.000000  1.000000
 GSVD:  LWork=       -4608 too small for GESVD, short by       21440 words or       21440 for optimal perf.
 Range of M.O.s used for correlation:    65   918
 NBasis=   918 NAE=   204 NBE=   204 NFC=    64 NFV=     0
 NROrb=    854 NOA=   140 NOB=   140 NVA=   714 NVB=   714

 **** Warning!!: The smallest alpha delta epsilon is  0.61391282D-01

 NEqPCM:  Using non-equilibrium solvation (IEInf=1, Eps=   8.9300, EpsInf=   2.0283)
 Inv3:  Mode=1 IEnd=   100294572.
 Iteration    1 A*A^-1 deviation from unit magnitude is 3.89D-15 for   5488.
 Iteration    1 A*A^-1 deviation from orthogonality  is 3.01D-15 for   2884   2799.
 Iteration    1 A^-1*A deviation from unit magnitude is 3.77D-15 for   3803.
 Iteration    1 A^-1*A deviation from orthogonality  is 4.29D-15 for   5684   5481.
 Orbital symmetries:
       Occupied  (A) (A) (A) (A) (A) (A) (A) (A) (A) (A) (A) (A)
                 (A) (A) (A) (A) (A) (A) (A) (A) (A) (A) (A) (A)
                 (A) (A) (A) (A) (A) (A) (A) (A) (A) (A) (A) (A)
                 (A) (A) (A) (A) (A) (A) (A) (A) (A) (A) (A) (A)
                 (A) (A) (A) (A) (A) (A) (A) (A) (A) (A) (A) (A)
                 (A) (A) (A) (A) (A) (A) (A) (A) (A) (A) (A) (A)
                 (A) (A) (A) (A) (A) (A) (A) (A) (A) (A) (A) (A)
                 (A) (A) (A) (A) (A) (A) (A) (A) (A) (A) (A) (A)
                 (A) (A) (A) (A) (A) (A) (A) (A) (A) (A) (A) (A)
                 (A) (A) (A) (A) (A) (A) (A) (A) (A) (A) (A) (A)
                 (A) (A) (A) (A) (A) (A) (A) (A) (A) (A) (A) (A)
                 (A) (A) (A) (A) (A) (A) (A) (A) (A) (A) (A) (A)
                 (A) (A) (A) (A) (A) (A) (A) (A) (A) (A) (A) (A)
                 (A) (A) (A) (A) (A) (A) (A) (A) (A) (A) (A) (A)
                 (A) (A) (A) (A) (A) (A) (A) (A) (A) (A) (A) (A)
                 (A) (A) (A) (A) (A) (A) (A) (A) (A) (A) (A) (A)
                 (A) (A) (A) (A) (A) (A) (A) (A) (A) (A) (A) (A)
       Virtual   (A) (A) (A) (A) (A) (A) (A) (A) (A) (A) (A) (A)
                 (A) (A) (A) (A) (A) (A) (A) (A) (A) (A) (A) (A)
                 (A) (A) (A) (A) (A) (A) (A) (A) (A) (A) (A) (A)
                 (A) (A) (A) (A) (A) (A) (A) (A) (A) (A) (A) (A)
                 (A) (A) (A) (A) (A) (A) (A) (A) (A) (A) (A) (A)
                 (A) (A) (A) (A) (A) (A) (A) (A) (A) (A) (A) (A)
                 (A) (A) (A) (A) (A) (A) (A) (A) (A) (A) (A) (A)
                 (A) (A) (A) (A) (A) (A) (A) (A) (A) (A) (A) (A)
                 (A) (A) (A) (A) (A) (A) (A) (A) (A) (A) (A) (A)
                 (A) (A) (A) (A) (A) (A) (A) (A) (A) (A) (A) (A)
                 (A) (A) (A) (A) (A) (A) (A) (A) (A) (A) (A) (A)
                 (A) (A) (A) (A) (A) (A) (A) (A) (A) (A) (A) (A)
                 (A) (A) (A) (A) (A) (A) (A) (A) (A) (A) (A) (A)
                 (A) (A) (A) (A) (A) (A) (A) (A) (A) (A) (A) (A)
                 (A) (A) (A) (A) (A) (A) (A) (A) (A) (A) (A) (A)
                 (A) (A) (A) (A) (A) (A) (A) (A) (A) (A) (A) (A)
                 (A) (A) (A) (A) (A) (A) (A) (A) (A) (A) (A) (A)
                 (A) (A) (A) (A) (A) (A) (A) (A) (A) (A) (A) (A)
                 (A) (A) (A) (A) (A) (A) (A) (A) (A) (A) (A) (A)
                 (A) (A) (A) (A) (A) (A) (A) (A) (A) (A) (A) (A)
                 (A) (A) (A) (A) (A) (A) (A) (A) (A) (A) (A) (A)
                 (A) (A) (A) (A) (A) (A) (A) (A) (A) (A) (A) (A)
                 (A) (A) (A) (A) (A) (A) (A) (A) (A) (A) (A) (A)
                 (A) (A) (A) (A) (A) (A) (A) (A) (A) (A) (A) (A)
                 (A) (A) (A) (A) (A) (A) (A) (A) (A) (A) (A) (A)
                 (A) (A) (A) (A) (A) (A) (A) (A) (A) (A) (A) (A)
                 (A) (A) (A) (A) (A) (A) (A) (A) (A) (A) (A) (A)
                 (A) (A) (A) (A) (A) (A) (A) (A) (A) (A) (A) (A)
                 (A) (A) (A) (A) (A) (A) (A) (A) (A) (A) (A) (A)
                 (A) (A) (A) (A) (A) (A) (A) (A) (A) (A) (A) (A)
                 (A) (A) (A) (A) (A) (A) (A) (A) (A) (A) (A) (A)
                 (A) (A) (A) (A) (A) (A) (A) (A) (A) (A) (A) (A)
                 (A) (A) (A) (A) (A) (A) (A) (A) (A) (A) (A) (A)
                 (A) (A) (A) (A) (A) (A) (A) (A) (A) (A) (A) (A)
                 (A) (A) (A) (A) (A) (A) (A) (A) (A) (A) (A) (A)
                 (A) (A) (A) (A) (A) (A) (A) (A) (A) (A) (A) (A)
                 (A) (A) (A) (A) (A) (A) (A) (A) (A) (A) (A) (A)
                 (A) (A) (A) (A) (A) (A) (A) (A) (A) (A) (A) (A)
                 (A) (A) (A) (A) (A) (A) (A) (A) (A) (A) (A) (A)
                 (A) (A) (A) (A) (A) (A) (A) (A) (A) (A) (A) (A)
                 (A) (A) (A) (A) (A) (A) (A) (A) (A) (A) (A) (A)
                 (A) (A) (A) (A) (A) (A) (A) (A) (A) (A) (A) (A)
                 (A) (A) (A) (A) (A) (A) (A) (A) (A) (A) (A) (A)
                 (A) (A) (A) (A) (A) (A) (A) (A) (A) (A) (A) (A)
                 (A) (A) (A) (A) (A) (A) (A) (A) (A) (A) (A) (A)
                 (A) (A) (A) (A) (A) (A) (A) (A) (A) (A) (A) (A)
                 (A) (A) (A) (A) (A) (A) (A) (A) (A) (A) (A) (A)
                 (A) (A) (A) (A) (A) (A) (A) (A) (A) (A) (A) (A)
                 (A) (A) (A) (A) (A) (A) (A) (A) (A) (A) (A) (A)
                 (A) (A) (A) (A) (A) (A) (A) (A) (A) (A) (A) (A)
                 (A) (A) (A) (A) (A) (A) (A) (A) (A) (A) (A) (A)
                 (A) (A) (A) (A) (A) (A) (A) (A) (A) (A) (A) (A)
                 (A) (A) (A) (A) (A) (A) (A) (A) (A) (A) (A) (A)
                 (A) (A) (A) (A) (A) (A) (A) (A) (A) (A) (A) (A)
                 (A) (A) (A) (A) (A) (A) (A) (A) (A) (A) (A) (A)
                 (A) (A) (A) (A) (A) (A) (A) (A) (A) (A) (A) (A)
                 (A) (A) (A) (A) (A) (A) (A) (A) (A) (A) (A) (A)
                 (A) (A) (A) (A) (A) (A) (A) (A) (A) (A) (A) (A)
                 (A) (A) (A) (A) (A) (A) (A) (A) (A) (A) (A) (A)
                 (A) (A) (A) (A) (A) (A)
    80 initial guesses have been made.
 Convergence on wavefunction:    0.001000000000000
 Iteration     1 Dimension    80 NMult     0 NNew     80
 CISAX will form    80 AO SS matrices at one time.
 New state      3 was old state      6
 New state      6 was old state      8
 New state      8 was old state      9
 New state      9 was old state     10
 New state     10 was old state     14
 New state     14 was old state     25
 New state     15 was old state     17
 New state     16 was old state     26
 New state     17 was old state     23
 New state     18 was old state     19
 New state     19 was old state     15
 New state     20 was old state     21
 Iteration     2 Dimension   120 NMult    80 NNew     40
 New state      6 was old state      7
 New state      7 was old state      6
 New state      8 was old state     10
 New state      9 was old state      8
 New state     10 was old state      9
 New state     15 was old state     18
 New state     16 was old state     15
 New state     17 was old state     16
 New state     18 was old state     17
 Iteration     3 Dimension   160 NMult   120 NNew     40
 Iteration     4 Dimension   200 NMult   160 NNew     40
 Iteration     5 Dimension   234 NMult   200 NNew     34
 Iteration     6 Dimension   242 NMult   234 NNew      8
 ***********************************************************************
 Excited states from <AA,BB:AA,BB> singles matrix:
 ***********************************************************************
 
 Ground to excited state transition densities written to RWF  633
 Ground to excited state transition electric dipole moments (Au):
       state          X           Y           Z        Dip. S.      Osc.
         1        -2.6461     -0.0002     -0.0003      7.0020      0.3062
         2         0.0001     -1.2202     -0.1135      1.5017      0.0752
         3         0.0000     -3.7771      0.5410     14.5592      0.9143
         4         2.7869     -0.0001      0.0002      7.7671      0.5180
         5         0.0512      0.0007     -0.0001      0.0026      0.0002
         6        -0.0001     -1.6595      0.1954      2.7922      0.1992
         7        -0.6760     -0.0001      0.0000      0.4569      0.0332
         8        -0.0000     -2.9629      0.7299      9.3118      0.7084
         9        -0.2356      0.0017     -0.0008      0.0555      0.0043
        10         0.0007      0.4814     -0.2500      0.2942      0.0229
        11        -1.8925     -0.0000     -0.0000      3.5815      0.2892
        12        -0.0004      0.5730      0.0623      0.3323      0.0279
        13         0.4393      0.0008     -0.0003      0.1929      0.0166
        14         0.0008     -0.6020      0.2462      0.4230      0.0365
        15        -0.0001      0.3683     -0.1119      0.1482      0.0130
        16         0.1084     -0.0004      0.0001      0.0118      0.0010
        17        -0.3107     -0.0007      0.0004      0.0965      0.0085
        18        -0.0002      0.5268     -0.2682      0.3495      0.0310
        19         0.2122      0.0002      0.0001      0.0450      0.0040
        20         0.0036      0.2125      0.3817      0.1909      0.0175
 Ground to excited state transition velocity dipole moments (Au):
       state          X           Y           Z        Dip. S.      Osc.
         1         0.1692      0.0000      0.0000      0.0286      0.2909
         2        -0.0000      0.0891      0.0118      0.0081      0.0716
         3        -0.0000      0.3444     -0.0437      0.1205      0.8529
         4        -0.2659      0.0000     -0.0000      0.0707      0.4710
         5        -0.0081     -0.0001      0.0000      0.0001      0.0004
         6         0.0000      0.1726     -0.0174      0.0301      0.1875
         7         0.0771      0.0000     -0.0000      0.0059      0.0364
         8         0.0000      0.3291     -0.0810      0.1149      0.6711
         9         0.0275     -0.0002      0.0001      0.0008      0.0043
        10        -0.0001     -0.0531      0.0329      0.0039      0.0222
        11         0.2203      0.0000      0.0000      0.0485      0.2671
        12         0.0000     -0.0704     -0.0127      0.0051      0.0271
        13        -0.0502     -0.0001      0.0000      0.0025      0.0130
        14        -0.0001      0.0774     -0.0266      0.0067      0.0345
        15         0.0000     -0.0451      0.0184      0.0024      0.0120
        16        -0.0113      0.0001     -0.0000      0.0001      0.0006
        17         0.0424      0.0001     -0.0001      0.0018      0.0091
        18         0.0000     -0.0664      0.0448      0.0064      0.0321
        19        -0.0272     -0.0000     -0.0000      0.0007      0.0037
        20        -0.0005     -0.0245     -0.0503      0.0031      0.0152
 Ground to excited state transition magnetic dipole moments (Au):
       state          X           Y           Z
         1        -0.0002      0.9392      3.1232
         2         0.0483     -0.0000      0.0001
         3         0.3736     -0.0001      0.0003
         4        -0.0003     -0.0707      1.0324
         5        -0.0002      0.1985      0.8713
         6         0.4117     -0.0002      0.0002
         7         0.0000      0.2769     -0.0982
         8         0.4311     -0.0003      0.0002
         9        -0.0007     -0.3127      0.1345
        10        -0.2397      0.0009     -0.0006
        11         0.0001      0.0889     -0.8231
        12         0.0716     -0.0001     -0.0003
        13        -0.0001      0.2374      0.6626
        14         0.0563      0.0002      0.0011
        15        -0.0730      0.0000     -0.0002
        16         0.0001      0.1376     -0.1043
        17         0.0004      0.1283     -0.4112
        18        -0.3356      0.0001     -0.0001
        19        -0.0001      0.0405     -0.1638
        20         0.0100      0.0009      0.0027
 Ground to excited state transition velocity quadrupole moments (Au):
       state          XX          YY          ZZ          XY          XZ          YZ
         1         0.0001      0.0000     -0.0001      0.2054     -0.2543      0.0000
         2        -0.6567      0.9901     -0.0057     -0.0002      0.0000      0.0272
         3        -0.2789      1.8066     -0.0751     -0.0002      0.0001      0.2782
         4        -0.0001      0.0001      0.0001      0.3532      0.0831     -0.0001
         5         0.0001     -0.0003      0.0000     -0.1317      0.0602     -0.0000
         6        -0.5734      0.8189     -0.0280     -0.0002      0.0001      0.0718
         7         0.0000     -0.0000      0.0000     -0.0907      0.0652      0.0001
         8        -0.4336      0.3933     -0.0183     -0.0001      0.0003      0.0348
         9         0.0012     -0.0004      0.0000     -0.0402      0.1950     -0.0002
        10         0.3867     -0.1690     -0.0004      0.0001     -0.0006     -0.0643
        11         0.0001     -0.0002      0.0000     -1.1871      0.0037      0.0000
        12         0.3498     -1.0040     -0.0185     -0.0002      0.0000     -0.0802
        13        -0.0019     -0.0007      0.0000      0.7683     -0.0757     -0.0002
        14         1.5974      0.4314     -0.0456      0.0011     -0.0002      0.2237
        15        -0.1872     -0.2491     -0.0134      0.0001     -0.0001      0.0772
        16         0.0009      0.0003     -0.0000      0.5199     -0.0199      0.0001
        17         0.0001     -0.0000     -0.0000     -0.4718      0.1565      0.0000
        18        -0.0230      0.0937      0.0043     -0.0000      0.0000      0.0247
        19        -0.0000     -0.0002      0.0001     -0.8120      0.2860     -0.0000
        20         1.3704     -1.2585      0.0495      0.0040     -0.0006      0.0179
 <0|del|b> * <b|rxdel|0> + <0|del|b> * <b|delr+rdel|0>
 Rotatory Strengths (R) in cgs (10**-40 erg-esu-cm/Gauss)
       state          XX          YY          ZZ    R(velocity)    E-M Angle
         1         0.3776      0.1330     -0.1760      0.1115       90.00
         2        -0.0123      0.0096     -0.0044     -0.0024       90.00
         3        -0.2822     -0.0813     -0.0919     -0.1518       90.00
         4        -0.0890      0.2927      0.1803      0.1280       90.00
         5        -0.0202      0.0209     -0.0561     -0.0185       90.00
         6        -0.1483      0.0017     -0.0562     -0.0676       90.00
         7         0.0096      0.0300      0.0062      0.0153       90.00
         8        -0.6229     -0.0762     -0.0696     -0.2562       90.05
         9         0.3044     -0.0168      0.0231      0.1036       90.00
        10        -0.2785      0.0140     -0.0012     -0.0886       90.00
        11        -0.0127      0.0737      0.0410      0.0340       90.00
        12         0.0404      0.0019      0.0303      0.0242       90.00
        13         0.0389      0.0327     -0.0703      0.0004       90.00
        14        -0.0822     -0.0726      0.0508     -0.0347       90.00
        15        -0.0168     -0.0180      0.0015     -0.0111       90.00
        16         0.0091      0.0146      0.0175      0.0137       90.00
        17         0.1163      0.0374      0.1066      0.0868       90.00
        18        -0.0440     -0.0347     -0.0486     -0.0425       90.00
        19         0.0241      0.0004     -0.0109      0.0045       90.00
        20        -0.9702      0.1319     -0.0122     -0.2835      106.45
 1/2[<0|r|b>*<b|rxdel|0> + (<0|rxdel|b>*<b|r|0>)*]
 Rotatory Strengths (R) in cgs (10**-40 erg-esu-cm/Gauss)
       state          XX          YY          ZZ     R(length)
         1        -0.3649      0.1020      0.6341      0.1237
         2        -0.0032     -0.0105      0.0046     -0.0030
         3        -0.0012     -0.3696     -0.1049     -0.1586
         4         0.5400     -0.0034     -0.1194      0.1391
         5         0.0056     -0.0939      0.0347     -0.0179
         6         0.0337     -0.2248     -0.0227     -0.0713
         7         0.0236      0.0219      0.0011      0.0155
         8         0.0085     -0.6825     -0.1242     -0.2661
         9        -0.1095      0.3740      0.0718      0.1121
        10         0.1241     -0.2983     -0.0999     -0.0914
        11         0.1167      0.0005     -0.0070      0.0367
        12         0.0195      0.0344      0.0130      0.0223
        13         0.0170     -0.1301      0.1574      0.0148
        14        -0.0327      0.0808     -0.1860     -0.0460
        15        -0.0047     -0.0067     -0.0186     -0.0100
        16        -0.0043      0.0409      0.0086      0.0151
        17         0.0784      0.0676      0.1034      0.0831
        18        -0.0448     -0.0555     -0.0266     -0.0423
        19         0.0147     -0.0045      0.0089      0.0064
        20        -0.0256     -0.1397     -0.7400     -0.3018
  1/2[<0|del|b>*<b|r|0> + (<0|r|b>*<b|del|0>)*] (Au)
       state          X           Y           Z        Dip. S.   Osc.(frdel)
         1        -0.4476     -0.0000     -0.0000      0.4476      0.2984
         2        -0.0000     -0.1087     -0.0013      0.1100      0.0733
         3        -0.0000     -1.3008     -0.0236      1.3244      0.8829
         4        -0.7409     -0.0000     -0.0000      0.7409      0.4940
         5        -0.0004     -0.0000     -0.0000      0.0004      0.0003
         6        -0.0000     -0.2865     -0.0034      0.2899      0.1932
         7        -0.0521     -0.0000     -0.0000      0.0521      0.0348
         8        -0.0000     -0.9751     -0.0591      1.0342      0.6895
         9        -0.0065     -0.0000     -0.0000      0.0065      0.0043
        10        -0.0000     -0.0256     -0.0082      0.0338      0.0225
        11        -0.4169     -0.0000     -0.0000      0.4169      0.2779
        12        -0.0000     -0.0403     -0.0008      0.0411      0.0274
        13        -0.0221     -0.0000     -0.0000      0.0221      0.0147
        14        -0.0000     -0.0466     -0.0065      0.0531      0.0354
        15        -0.0000     -0.0166     -0.0021      0.0187      0.0125
        16        -0.0012     -0.0000     -0.0000      0.0012      0.0008
        17        -0.0132     -0.0000     -0.0000      0.0132      0.0088
        18        -0.0000     -0.0350     -0.0120      0.0470      0.0313
        19        -0.0058     -0.0000     -0.0000      0.0058      0.0038
        20        -0.0000     -0.0052     -0.0192      0.0244      0.0163

 Excitation energies and oscillator strengths:
 
 Excited State   1:      Singlet-A      1.7847 eV  694.70 nm  f=0.3062  <S**2>=0.000
     203 ->206         0.15658
     204 ->205         0.68890
 This state for optimization and/or second-order correction.
 Total Energy, E(TD-HF/TD-DFT) =  -3700.60967164    
 Copying the excited state density for this state as the 1-particle RhoCI density.
 
 Excited State   2:      Singlet-A      2.0450 eV  606.27 nm  f=0.0752  <S**2>=0.000
     203 ->205         0.60758
     204 ->206        -0.35633
 
 Excited State   3:      Singlet-A      2.5632 eV  483.71 nm  f=0.9143  <S**2>=0.000
     201 ->205        -0.29994
     203 ->205         0.31315
     204 ->206         0.55632
 
 Excited State   4:      Singlet-A      2.7224 eV  455.43 nm  f=0.5180  <S**2>=0.000
     199 ->205         0.11590
     203 ->206         0.66246
     204 ->205        -0.14847
 
 Excited State   5:      Singlet-A      2.7934 eV  443.85 nm  f=0.0002  <S**2>=0.000
     202 ->205         0.69381
 
 Excited State   6:      Singlet-A      2.9115 eV  425.85 nm  f=0.1992  <S**2>=0.000
     200 ->205         0.55169
     201 ->205         0.40361
     204 ->206         0.11287
 
 Excited State   7:      Singlet-A      2.9642 eV  418.28 nm  f=0.0332  <S**2>=0.000
     199 ->205         0.67413
     203 ->206        -0.13943
 
 Excited State   8:      Singlet-A      3.1051 eV  399.29 nm  f=0.7084  <S**2>=0.000
     195 ->205        -0.10067
     200 ->205        -0.41786
     201 ->205         0.47219
     203 ->205         0.15589
     204 ->206         0.21062
 
 Excited State   9:      Singlet-A      3.1772 eV  390.23 nm  f=0.0043  <S**2>=0.000
     198 ->205         0.70042
 
 Excited State  10:      Singlet-A      3.1808 eV  389.79 nm  f=0.0229  <S**2>=0.000
     197 ->205         0.69705
 
 Excited State  11:      Singlet-A      3.2957 eV  376.20 nm  f=0.2892  <S**2>=0.000
     196 ->205         0.68318
 
 Excited State  12:      Singlet-A      3.4311 eV  361.36 nm  f=0.0279  <S**2>=0.000
     191 ->205         0.14359
     192 ->205         0.10628
     199 ->206        -0.24149
     202 ->206         0.61585
 
 Excited State  13:      Singlet-A      3.5128 eV  352.95 nm  f=0.0166  <S**2>=0.000
     190 ->205         0.17850
     193 ->205        -0.20304
     201 ->206         0.60567
     204 ->207        -0.17122
 
 Excited State  14:      Singlet-A      3.5234 eV  351.89 nm  f=0.0365  <S**2>=0.000
     195 ->205         0.66817
     199 ->206         0.11999
 
 Excited State  15:      Singlet-A      3.5810 eV  346.23 nm  f=0.0130  <S**2>=0.000
     191 ->205        -0.19884
     192 ->205        -0.12097
     195 ->205        -0.10770
     199 ->206         0.55281
     202 ->206         0.30714
 
 Excited State  16:      Singlet-A      3.5879 eV  345.56 nm  f=0.0010  <S**2>=0.000
     190 ->205         0.15350
     194 ->205         0.63150
     204 ->207         0.22052
 
 Excited State  17:      Singlet-A      3.6027 eV  344.14 nm  f=0.0085  <S**2>=0.000
     190 ->205         0.50292
     191 ->206         0.12813
     193 ->205        -0.30661
     194 ->205        -0.12814
     200 ->206        -0.17441
     201 ->206        -0.26016
 
 Excited State  18:      Singlet-A      3.6233 eV  342.19 nm  f=0.0310  <S**2>=0.000
     189 ->205         0.24404
     190 ->206         0.18015
     191 ->205         0.40085
     192 ->205         0.37481
     195 ->205        -0.11067
     199 ->206         0.23925
     204 ->208         0.13439
 
 Excited State  19:      Singlet-A      3.6425 eV  340.38 nm  f=0.0040  <S**2>=0.000
     190 ->205         0.16593
     200 ->206         0.65638
     204 ->207         0.11584
 
 Excited State  20:      Singlet-A      3.7442 eV  331.14 nm  f=0.0175  <S**2>=0.000
     189 ->205        -0.13050
     203 ->207         0.15782
     204 ->208         0.64714
 SavETr:  write IOETrn=   770 NScale= 10 NData=  16 NLR=1 NState=   20 LETran=     370.

 **********************************************************************

            Population analysis using the SCF Density.

 **********************************************************************

 Orbital symmetries:
       Occupied  (A) (A) (A) (A) (A) (A) (A) (A) (A) (A) (A) (A)
                 (A) (A) (A) (A) (A) (A) (A) (A) (A) (A) (A) (A)
                 (A) (A) (A) (A) (A) (A) (A) (A) (A) (A) (A) (A)
                 (A) (A) (A) (A) (A) (A) (A) (A) (A) (A) (A) (A)
                 (A) (A) (A) (A) (A) (A) (A) (A) (A) (A) (A) (A)
                 (A) (A) (A) (A) (A) (A) (A) (A) (A) (A) (A) (A)
                 (A) (A) (A) (A) (A) (A) (A) (A) (A) (A) (A) (A)
                 (A) (A) (A) (A) (A) (A) (A) (A) (A) (A) (A) (A)
                 (A) (A) (A) (A) (A) (A) (A) (A) (A) (A) (A) (A)
                 (A) (A) (A) (A) (A) (A) (A) (A) (A) (A) (A) (A)
                 (A) (A) (A) (A) (A) (A) (A) (A) (A) (A) (A) (A)
                 (A) (A) (A) (A) (A) (A) (A) (A) (A) (A) (A) (A)
                 (A) (A) (A) (A) (A) (A) (A) (A) (A) (A) (A) (A)
                 (A) (A) (A) (A) (A) (A) (A) (A) (A) (A) (A) (A)
                 (A) (A) (A) (A) (A) (A) (A) (A) (A) (A) (A) (A)
                 (A) (A) (A) (A) (A) (A) (A) (A) (A) (A) (A) (A)
                 (A) (A) (A) (A) (A) (A) (A) (A) (A) (A) (A) (A)
       Virtual   (A) (A) (A) (A) (A) (A) (A) (A) (A) (A) (A) (A)
                 (A) (A) (A) (A) (A) (A) (A) (A) (A) (A) (A) (A)
                 (A) (A) (A) (A) (A) (A) (A) (A) (A) (A) (A) (A)
                 (A) (A) (A) (A) (A) (A) (A) (A) (A) (A) (A) (A)
                 (A) (A) (A) (A) (A) (A) (A) (A) (A) (A) (A) (A)
                 (A) (A) (A) (A) (A) (A) (A) (A) (A) (A) (A) (A)
                 (A) (A) (A) (A) (A) (A) (A) (A) (A) (A) (A) (A)
                 (A) (A) (A) (A) (A) (A) (A) (A) (A) (A) (A) (A)
                 (A) (A) (A) (A) (A) (A) (A) (A) (A) (A) (A) (A)
                 (A) (A) (A) (A) (A) (A) (A) (A) (A) (A) (A) (A)
                 (A) (A) (A) (A) (A) (A) (A) (A) (A) (A) (A) (A)
                 (A) (A) (A) (A) (A) (A) (A) (A) (A) (A) (A) (A)
                 (A) (A) (A) (A) (A) (A) (A) (A) (A) (A) (A) (A)
                 (A) (A) (A) (A) (A) (A) (A) (A) (A) (A) (A) (A)
                 (A) (A) (A) (A) (A) (A) (A) (A) (A) (A) (A) (A)
                 (A) (A) (A) (A) (A) (A) (A) (A) (A) (A) (A) (A)
                 (A) (A) (A) (A) (A) (A) (A) (A) (A) (A) (A) (A)
                 (A) (A) (A) (A) (A) (A) (A) (A) (A) (A) (A) (A)
                 (A) (A) (A) (A) (A) (A) (A) (A) (A) (A) (A) (A)
                 (A) (A) (A) (A) (A) (A) (A) (A) (A) (A) (A) (A)
                 (A) (A) (A) (A) (A) (A) (A) (A) (A) (A) (A) (A)
                 (A) (A) (A) (A) (A) (A) (A) (A) (A) (A) (A) (A)
                 (A) (A) (A) (A) (A) (A) (A) (A) (A) (A) (A) (A)
                 (A) (A) (A) (A) (A) (A) (A) (A) (A) (A) (A) (A)
                 (A) (A) (A) (A) (A) (A) (A) (A) (A) (A) (A) (A)
                 (A) (A) (A) (A) (A) (A) (A) (A) (A) (A) (A) (A)
                 (A) (A) (A) (A) (A) (A) (A) (A) (A) (A) (A) (A)
                 (A) (A) (A) (A) (A) (A) (A) (A) (A) (A) (A) (A)
                 (A) (A) (A) (A) (A) (A) (A) (A) (A) (A) (A) (A)
                 (A) (A) (A) (A) (A) (A) (A) (A) (A) (A) (A) (A)
                 (A) (A) (A) (A) (A) (A) (A) (A) (A) (A) (A) (A)
                 (A) (A) (A) (A) (A) (A) (A) (A) (A) (A) (A) (A)
                 (A) (A) (A) (A) (A) (A) (A) (A) (A) (A) (A) (A)
                 (A) (A) (A) (A) (A) (A) (A) (A) (A) (A) (A) (A)
                 (A) (A) (A) (A) (A) (A) (A) (A) (A) (A) (A) (A)
                 (A) (A) (A) (A) (A) (A) (A) (A) (A) (A) (A) (A)
                 (A) (A) (A) (A) (A) (A) (A) (A) (A) (A) (A) (A)
                 (A) (A) (A) (A) (A) (A) (A) (A) (A) (A) (A) (A)
                 (A) (A) (A) (A) (A) (A) (A) (A) (A) (A) (A) (A)
                 (A) (A) (A) (A) (A) (A) (A) (A) (A) (A) (A) (A)
                 (A) (A) (A) (A) (A) (A) (A) (A) (A) (A) (A) (A)
                 (A) (A) (A) (A) (A) (A) (A) (A) (A) (A) (A) (A)
                 (A) (A) (A) (A) (A) (A) (A) (A) (A) (A) (A) (A)
                 (A) (A) (A) (A) (A) (A) (A) (A) (A) (A) (A) (A)
                 (A) (A) (A) (A) (A) (A) (A) (A) (A) (A) (A) (A)
                 (A) (A) (A) (A) (A) (A) (A) (A) (A) (A) (A) (A)
                 (A) (A) (A) (A) (A) (A) (A) (A) (A) (A) (A) (A)
                 (A) (A) (A) (A) (A) (A) (A) (A) (A) (A) (A) (A)
                 (A) (A) (A) (A) (A) (A) (A) (A) (A) (A) (A) (A)
                 (A) (A) (A) (A) (A) (A) (A) (A) (A) (A) (A) (A)
                 (A) (A) (A) (A) (A) (A) (A) (A) (A) (A) (A) (A)
                 (A) (A) (A) (A) (A) (A) (A) (A) (A) (A) (A) (A)
                 (A) (A) (A) (A) (A) (A) (A) (A) (A) (A) (A) (A)
                 (A) (A) (A) (A) (A) (A) (A) (A) (A) (A) (A) (A)
                 (A) (A) (A) (A) (A) (A) (A) (A) (A) (A) (A) (A)
                 (A) (A) (A) (A) (A) (A) (A) (A) (A) (A) (A) (A)
                 (A) (A) (A) (A) (A) (A) (A) (A) (A) (A) (A) (A)
                 (A) (A) (A) (A) (A) (A) (A) (A) (A) (A) (A) (A)
                 (A) (A) (A) (A) (A) (A) (A) (A) (A) (A) (A) (A)
                 (A) (A) (A) (A) (A) (A)
 The electronic state is 1-A.
 Alpha  occ. eigenvalues -- -101.72666-101.72665 -24.81949 -24.81949 -24.81496
 Alpha  occ. eigenvalues --  -24.81496 -24.81473 -24.81473 -24.81439 -24.81439
 Alpha  occ. eigenvalues --  -24.81362 -24.81362 -14.45462 -14.45462 -14.39798
 Alpha  occ. eigenvalues --  -14.39798 -14.37794 -14.37794 -10.34813 -10.34813
 Alpha  occ. eigenvalues --  -10.34564 -10.34564 -10.34554 -10.34554 -10.34120
 Alpha  occ. eigenvalues --  -10.34120 -10.34104 -10.34104 -10.30792 -10.30737
 Alpha  occ. eigenvalues --  -10.30003 -10.29958 -10.28571 -10.28571 -10.28517
 Alpha  occ. eigenvalues --  -10.28517 -10.27926 -10.27926 -10.27737 -10.27710
 Alpha  occ. eigenvalues --  -10.27710 -10.27688 -10.26421 -10.26421 -10.26282
 Alpha  occ. eigenvalues --  -10.26282 -10.25053 -10.25052 -10.24455 -10.24454
 Alpha  occ. eigenvalues --  -10.24212 -10.24212 -10.23039 -10.23039 -10.22690
 Alpha  occ. eigenvalues --  -10.22690  -9.53534  -9.53532  -7.26992  -7.26989
 Alpha  occ. eigenvalues --   -7.26024  -7.26022  -7.25976  -7.25973  -1.28757
 Alpha  occ. eigenvalues --   -1.28757  -1.27999  -1.27999  -1.27497  -1.27497
 Alpha  occ. eigenvalues --   -1.26581  -1.26581  -1.26265  -1.26265  -1.03191
 Alpha  occ. eigenvalues --   -1.01782  -0.98384  -0.97764  -0.96769  -0.94498
 Alpha  occ. eigenvalues --   -0.93077  -0.92359  -0.92333  -0.87788  -0.86031
 Alpha  occ. eigenvalues --   -0.85259  -0.84233  -0.82645  -0.81172  -0.80281
 Alpha  occ. eigenvalues --   -0.79387  -0.79381  -0.78617  -0.77931  -0.77743
 Alpha  occ. eigenvalues --   -0.77646  -0.76643  -0.75305  -0.73975  -0.70728
 Alpha  occ. eigenvalues --   -0.70113  -0.67618  -0.67522  -0.67448  -0.67227
 Alpha  occ. eigenvalues --   -0.65921  -0.63399  -0.63072  -0.62103  -0.61500
 Alpha  occ. eigenvalues --   -0.61419  -0.60724  -0.60530  -0.60257  -0.60047
 Alpha  occ. eigenvalues --   -0.59338  -0.58842  -0.58711  -0.58066  -0.57056
 Alpha  occ. eigenvalues --   -0.56371  -0.56009  -0.55373  -0.55373  -0.54691
 Alpha  occ. eigenvalues --   -0.54618  -0.54267  -0.53902  -0.53163  -0.53082
 Alpha  occ. eigenvalues --   -0.52772  -0.52701  -0.52200  -0.51757  -0.51621
 Alpha  occ. eigenvalues --   -0.50342  -0.50268  -0.49976  -0.49751  -0.49139
 Alpha  occ. eigenvalues --   -0.48985  -0.48017  -0.47764  -0.47352  -0.47309
 Alpha  occ. eigenvalues --   -0.46934  -0.46847  -0.46827  -0.46434  -0.45701
 Alpha  occ. eigenvalues --   -0.45545  -0.45129  -0.44839  -0.44836  -0.44527
 Alpha  occ. eigenvalues --   -0.44444  -0.44393  -0.43694  -0.43073  -0.42905
 Alpha  occ. eigenvalues --   -0.42189  -0.41986  -0.41917  -0.41902  -0.41830
 Alpha  occ. eigenvalues --   -0.41567  -0.41498  -0.41304  -0.40586  -0.40463
 Alpha  occ. eigenvalues --   -0.39527  -0.39190  -0.39044  -0.38904  -0.38641
 Alpha  occ. eigenvalues --   -0.38625  -0.38299  -0.38006  -0.36830  -0.36188
 Alpha  occ. eigenvalues --   -0.35596  -0.35522  -0.35017  -0.33611  -0.33053
 Alpha  occ. eigenvalues --   -0.31626  -0.30751  -0.29555  -0.28949  -0.28432
 Alpha  occ. eigenvalues --   -0.28420  -0.28014  -0.27505  -0.27334  -0.26870
 Alpha  occ. eigenvalues --   -0.26047  -0.25593  -0.25585  -0.25184  -0.25033
 Alpha  occ. eigenvalues --   -0.24512  -0.24376  -0.21234  -0.19685
 Alpha virt. eigenvalues --   -0.13546  -0.11352  -0.05965  -0.05857  -0.04196
 Alpha virt. eigenvalues --   -0.03821  -0.02753  -0.02684  -0.01879  -0.00643
 Alpha virt. eigenvalues --    0.00025   0.00188   0.00224   0.00275   0.04169
 Alpha virt. eigenvalues --    0.04250   0.05638   0.07433   0.08046   0.08129
 Alpha virt. eigenvalues --    0.09385   0.09852   0.09910   0.10971   0.11213
 Alpha virt. eigenvalues --    0.11305   0.11828   0.11991   0.12287   0.12508
 Alpha virt. eigenvalues --    0.13091   0.13483   0.13621   0.14424   0.14475
 Alpha virt. eigenvalues --    0.15037   0.15155   0.15516   0.16005   0.16022
 Alpha virt. eigenvalues --    0.16999   0.17276   0.17735   0.18258   0.19375
 Alpha virt. eigenvalues --    0.20440   0.21148   0.21509   0.21779   0.22156
 Alpha virt. eigenvalues --    0.22474   0.22834   0.23427   0.24122   0.24259
 Alpha virt. eigenvalues --    0.24849   0.25512   0.25557   0.25973   0.26240
 Alpha virt. eigenvalues --    0.27326   0.27671   0.28202   0.29360   0.29858
 Alpha virt. eigenvalues --    0.30176   0.30777   0.31257   0.32477   0.32718
 Alpha virt. eigenvalues --    0.33896   0.34156   0.34454   0.35393   0.35609
 Alpha virt. eigenvalues --    0.35751   0.36154   0.36836   0.37155   0.37707
 Alpha virt. eigenvalues --    0.38380   0.38503   0.39157   0.39777   0.39857
 Alpha virt. eigenvalues --    0.40490   0.41243   0.41601   0.41766   0.42618
 Alpha virt. eigenvalues --    0.42979   0.43515   0.43673   0.44962   0.45816
 Alpha virt. eigenvalues --    0.45950   0.46237   0.46239   0.46289   0.46577
 Alpha virt. eigenvalues --    0.46836   0.46839   0.47574   0.47987   0.48305
 Alpha virt. eigenvalues --    0.49426   0.50220   0.50539   0.50836   0.50902
 Alpha virt. eigenvalues --    0.51196   0.51216   0.51260   0.51385   0.51631
 Alpha virt. eigenvalues --    0.51802   0.52203   0.52403   0.52476   0.53071
 Alpha virt. eigenvalues --    0.53383   0.54229   0.54700   0.54787   0.55012
 Alpha virt. eigenvalues --    0.55083   0.55409   0.55489   0.55855   0.56221
 Alpha virt. eigenvalues --    0.56273   0.56471   0.56677   0.56916   0.57315
 Alpha virt. eigenvalues --    0.57516   0.57965   0.58211   0.58455   0.58943
 Alpha virt. eigenvalues --    0.59185   0.59440   0.59688   0.60135   0.60336
 Alpha virt. eigenvalues --    0.60402   0.60896   0.61061   0.61463   0.61500
 Alpha virt. eigenvalues --    0.61801   0.62332   0.62426   0.62815   0.62888
 Alpha virt. eigenvalues --    0.63209   0.63270   0.63667   0.63687   0.64408
 Alpha virt. eigenvalues --    0.64706   0.64906   0.65437   0.66545   0.66579
 Alpha virt. eigenvalues --    0.67075   0.67163   0.67531   0.67807   0.68504
 Alpha virt. eigenvalues --    0.69458   0.69707   0.70594   0.70860   0.71871
 Alpha virt. eigenvalues --    0.72731   0.73751   0.73919   0.74751   0.75548
 Alpha virt. eigenvalues --    0.76186   0.76774   0.76785   0.77094   0.77318
 Alpha virt. eigenvalues --    0.77802   0.78474   0.79223   0.79390   0.80111
 Alpha virt. eigenvalues --    0.80538   0.80679   0.80965   0.81100   0.81125
 Alpha virt. eigenvalues --    0.81511   0.81542   0.81690   0.82028   0.82599
 Alpha virt. eigenvalues --    0.83060   0.83277   0.84044   0.84329   0.84480
 Alpha virt. eigenvalues --    0.84640   0.84802   0.85035   0.85230   0.85297
 Alpha virt. eigenvalues --    0.85637   0.85668   0.86341   0.86379   0.86490
 Alpha virt. eigenvalues --    0.87171   0.87343   0.87594   0.87746   0.89376
 Alpha virt. eigenvalues --    0.90346   0.90967   0.91012   0.91831   0.91979
 Alpha virt. eigenvalues --    0.92500   0.92801   0.92876   0.94166   0.94270
 Alpha virt. eigenvalues --    0.94603   0.95043   0.95469   0.96232   0.96493
 Alpha virt. eigenvalues --    0.97380   0.97981   0.98634   0.98679   0.99317
 Alpha virt. eigenvalues --    0.99733   1.00871   1.01286   1.01476   1.02568
 Alpha virt. eigenvalues --    1.02729   1.02892   1.03761   1.05105   1.05317
 Alpha virt. eigenvalues --    1.06034   1.06659   1.07180   1.07836   1.08096
 Alpha virt. eigenvalues --    1.08853   1.09908   1.11050   1.11589   1.12199
 Alpha virt. eigenvalues --    1.12805   1.13482   1.13591   1.14659   1.14787
 Alpha virt. eigenvalues --    1.15526   1.15540   1.16206   1.16579   1.17923
 Alpha virt. eigenvalues --    1.18338   1.18864   1.19047   1.19391   1.19712
 Alpha virt. eigenvalues --    1.20022   1.20094   1.20349   1.20574   1.20790
 Alpha virt. eigenvalues --    1.21021   1.21222   1.21971   1.22389   1.22605
 Alpha virt. eigenvalues --    1.22873   1.23103   1.23582   1.23735   1.24029
 Alpha virt. eigenvalues --    1.24087   1.24880   1.25724   1.25834   1.26667
 Alpha virt. eigenvalues --    1.27608   1.27974   1.28343   1.28523   1.28662
 Alpha virt. eigenvalues --    1.29487   1.29705   1.30281   1.30501   1.30967
 Alpha virt. eigenvalues --    1.31637   1.32281   1.32341   1.33301   1.33366
 Alpha virt. eigenvalues --    1.33546   1.34071   1.34566   1.34690   1.35267
 Alpha virt. eigenvalues --    1.35305   1.36035   1.36149   1.36167   1.37661
 Alpha virt. eigenvalues --    1.37884   1.37889   1.38311   1.38876   1.39056
 Alpha virt. eigenvalues --    1.39361   1.39740   1.40065   1.40544   1.40914
 Alpha virt. eigenvalues --    1.41071   1.41421   1.42046   1.42834   1.42945
 Alpha virt. eigenvalues --    1.43590   1.43648   1.44075   1.44456   1.45183
 Alpha virt. eigenvalues --    1.45429   1.45587   1.46215   1.46458   1.47110
 Alpha virt. eigenvalues --    1.47115   1.48303   1.49126   1.50324   1.51222
 Alpha virt. eigenvalues --    1.51716   1.52232   1.53008   1.54211   1.54320
 Alpha virt. eigenvalues --    1.55375   1.57272   1.58958   1.59209   1.59965
 Alpha virt. eigenvalues --    1.60038   1.61286   1.61442   1.62084   1.62800
 Alpha virt. eigenvalues --    1.63636   1.64412   1.64587   1.64979   1.67071
 Alpha virt. eigenvalues --    1.67416   1.68499   1.68552   1.69654   1.70268
 Alpha virt. eigenvalues --    1.70595   1.71966   1.72100   1.72715   1.72791
 Alpha virt. eigenvalues --    1.73672   1.73763   1.74713   1.74789   1.74888
 Alpha virt. eigenvalues --    1.75281   1.75507   1.75589   1.75629   1.75645
 Alpha virt. eigenvalues --    1.75927   1.76399   1.77023   1.77026   1.77184
 Alpha virt. eigenvalues --    1.77613   1.77660   1.77897   1.78551   1.79033
 Alpha virt. eigenvalues --    1.79779   1.79896   1.80057   1.80726   1.80969
 Alpha virt. eigenvalues --    1.80998   1.81510   1.81887   1.82992   1.83045
 Alpha virt. eigenvalues --    1.83822   1.84442   1.85435   1.85496   1.85613
 Alpha virt. eigenvalues --    1.86232   1.86631   1.86805   1.87018   1.87044
 Alpha virt. eigenvalues --    1.87177   1.88013   1.88139   1.88140   1.88937
 Alpha virt. eigenvalues --    1.89723   1.90337   1.90463   1.91265   1.91425
 Alpha virt. eigenvalues --    1.91626   1.91968   1.92390   1.92694   1.93222
 Alpha virt. eigenvalues --    1.94131   1.94439   1.94605   1.94851   1.95584
 Alpha virt. eigenvalues --    1.95742   1.95869   1.96590   1.98463   1.99034
 Alpha virt. eigenvalues --    2.00101   2.00896   2.01499   2.01599   2.02000
 Alpha virt. eigenvalues --    2.02194   2.02758   2.03105   2.03305   2.03970
 Alpha virt. eigenvalues --    2.05540   2.06245   2.06738   2.06768   2.07311
 Alpha virt. eigenvalues --    2.07397   2.08321   2.09219   2.09947   2.10565
 Alpha virt. eigenvalues --    2.11627   2.11955   2.12441   2.13302   2.13736
 Alpha virt. eigenvalues --    2.14697   2.14753   2.15028   2.15249   2.15770
 Alpha virt. eigenvalues --    2.16092   2.16520   2.17468   2.18034   2.18485
 Alpha virt. eigenvalues --    2.19130   2.19526   2.19644   2.19666   2.20598
 Alpha virt. eigenvalues --    2.20780   2.22595   2.23380   2.23500   2.24411
 Alpha virt. eigenvalues --    2.24610   2.25060   2.25157   2.25691   2.26019
 Alpha virt. eigenvalues --    2.26350   2.27348   2.27576   2.27837   2.28214
 Alpha virt. eigenvalues --    2.28327   2.29063   2.29074   2.29387   2.29801
 Alpha virt. eigenvalues --    2.30388   2.31123   2.31303   2.31962   2.33475
 Alpha virt. eigenvalues --    2.33478   2.33867   2.34053   2.34194   2.35040
 Alpha virt. eigenvalues --    2.35603   2.36791   2.36936   2.37049   2.37581
 Alpha virt. eigenvalues --    2.37859   2.38184   2.39004   2.39401   2.39549
 Alpha virt. eigenvalues --    2.40480   2.41042   2.41058   2.42036   2.42355
 Alpha virt. eigenvalues --    2.42972   2.43097   2.43476   2.43739   2.45140
 Alpha virt. eigenvalues --    2.46813   2.46886   2.47448   2.47805   2.48222
 Alpha virt. eigenvalues --    2.48937   2.49992   2.50439   2.50849   2.51466
 Alpha virt. eigenvalues --    2.52542   2.53761   2.53833   2.53849   2.54224
 Alpha virt. eigenvalues --    2.54384   2.55838   2.55853   2.56286   2.56653
 Alpha virt. eigenvalues --    2.57485   2.57581   2.58366   2.58376   2.59086
 Alpha virt. eigenvalues --    2.59160   2.59688   2.60375   2.61474   2.61554
 Alpha virt. eigenvalues --    2.62153   2.63494   2.63785   2.63826   2.64706
 Alpha virt. eigenvalues --    2.64880   2.65271   2.65847   2.66997   2.68590
 Alpha virt. eigenvalues --    2.69071   2.70866   2.70894   2.71265   2.71453
 Alpha virt. eigenvalues --    2.72485   2.73307   2.73335   2.73463   2.74762
 Alpha virt. eigenvalues --    2.74871   2.75798   2.75965   2.76757   2.77109
 Alpha virt. eigenvalues --    2.78347   2.79444   2.79449   2.79945   2.80885
 Alpha virt. eigenvalues --    2.81438   2.82146   2.84927   2.85009   2.87387
 Alpha virt. eigenvalues --    2.87747   2.88373   2.88930   2.90813   2.91721
 Alpha virt. eigenvalues --    2.92551   2.94942   2.95199   2.95927   2.97144
 Alpha virt. eigenvalues --    2.97812   2.98388   2.98421   2.98525   3.01244
 Alpha virt. eigenvalues --    3.01591   3.01894   3.05164   3.05602   3.07061
 Alpha virt. eigenvalues --    3.07071   3.08191   3.08662   3.10346   3.10627
 Alpha virt. eigenvalues --    3.10634   3.10763   3.11409   3.12785   3.13705
 Alpha virt. eigenvalues --    3.13886   3.15743   3.15755   3.15881   3.19157
 Alpha virt. eigenvalues --    3.25364   3.25773   3.27257   3.28772   3.30479
 Alpha virt. eigenvalues --    3.32502   3.35142   3.37630   3.39834   3.40059
 Alpha virt. eigenvalues --    3.41523   3.43902   3.48618   3.50968   3.51627
 Alpha virt. eigenvalues --    3.55320   3.56548   3.65013   3.66157   3.68451
 Alpha virt. eigenvalues --    3.72340   3.72383   3.75744   4.01692   4.01742
 Alpha virt. eigenvalues --    4.02052   4.03326   4.04171   4.04329   4.08422
 Alpha virt. eigenvalues --    4.08838   4.10159   4.12926   4.13302   4.13624
 Alpha virt. eigenvalues --    4.14440   4.16087   4.16729   4.17522   4.18551
 Alpha virt. eigenvalues --    4.21864   4.23693   4.26513   4.28798   4.29486
 Alpha virt. eigenvalues --    4.31905   4.32776   4.34639   4.35606   4.36022
 Alpha virt. eigenvalues --    4.36744   4.39997   4.41464   4.42575   4.42922
 Alpha virt. eigenvalues --    4.45390   4.47333   4.49667   4.52495   4.54886
 Alpha virt. eigenvalues --    4.57904   4.58210   4.66418   4.71358   4.71564
 Alpha virt. eigenvalues --    4.75331   4.76144   4.83354   4.83619   4.84647
 Alpha virt. eigenvalues --    4.86344   5.11061   5.11149   5.76879   5.77377
 Alpha virt. eigenvalues --    6.20049   6.20181   6.95744   6.96089
          Condensed to atoms (all electrons):
 Mulliken charges:
               1
     1  C    0.335376
     2  C   -0.179897
     3  C   -0.152710
     4  C    0.305005
     5  N   -0.682243
     6  H    0.327812
     7  H    0.168803
     8  H    0.169850
     9  C    0.335395
    10  C   -0.179893
    11  N   -0.682269
    12  C   -0.152703
    13  H    0.168801
    14  C    0.305012
    15  H    0.327814
    16  H    0.169849
    17  C    0.017131
    18  C    0.017141
    19  C    0.247589
    20  C   -0.128154
    21  N   -0.634596
    22  C   -0.192598
    23  H    0.152862
    24  C    0.250283
    25  H    0.151495
    26  C    0.247611
    27  C   -0.128157
    28  N   -0.634610
    29  C   -0.192597
    30  H    0.152861
    31  C    0.250290
    32  H    0.151495
    33  N   -0.487389
    34  N   -0.487384
    35  C   -0.238331
    36  C    0.339079
    37  C    0.339028
    38  C    0.265739
    39  C    0.265039
    40  C    0.278558
    41  C   -0.238357
    42  C    0.339033
    43  C    0.339085
    44  C    0.265038
    45  C    0.265738
    46  C    0.278558
    47  C    0.084848
    48  H    0.144623
    49  C    0.084856
    50  H    0.144620
    51  C    0.231287
    52  C   -0.103175
    53  C    0.231296
    54  C   -0.146912
    55  H    0.176030
    56  C   -0.103174
    57  C   -0.146910
    58  H    0.176027
    59  Cl   0.034719
    60  Cl   0.034720
    61  F   -0.267336
    62  F   -0.269531
    63  F   -0.264169
    64  F   -0.269629
    65  F   -0.268502
    66  F   -0.268502
    67  F   -0.269630
    68  F   -0.264168
    69  F   -0.269531
    70  F   -0.267335
 Sum of Mulliken charges =  -0.00000
 Mulliken charges with hydrogens summed into heavy atoms:
               1
     1  C    0.335376
     2  C   -0.011094
     3  C    0.017140
     4  C    0.305005
     5  N   -0.354431
     9  C    0.335395
    10  C   -0.011092
    11  N   -0.354454
    12  C    0.017146
    14  C    0.305012
    17  C    0.017131
    18  C    0.017141
    19  C    0.247589
    20  C    0.024708
    21  N   -0.634596
    22  C   -0.041103
    24  C    0.250283
    26  C    0.247611
    27  C    0.024705
    28  N   -0.634610
    29  C   -0.041102
    31  C    0.250290
    33  N   -0.487389
    34  N   -0.487384
    35  C   -0.238331
    36  C    0.339079
    37  C    0.339028
    38  C    0.265739
    39  C    0.265039
    40  C    0.278558
    41  C   -0.238357
    42  C    0.339033
    43  C    0.339085
    44  C    0.265038
    45  C    0.265738
    46  C    0.278558
    47  C    0.229471
    49  C    0.229476
    51  C    0.231287
    52  C    0.072855
    53  C    0.231296
    54  C   -0.146912
    56  C    0.072853
    57  C   -0.146910
    59  Cl   0.034719
    60  Cl   0.034720
    61  F   -0.267336
    62  F   -0.269531
    63  F   -0.264169
    64  F   -0.269629
    65  F   -0.268502
    66  F   -0.268502
    67  F   -0.269630
    68  F   -0.264168
    69  F   -0.269531
    70  F   -0.267335
 Electronic spatial extent (au):  <R**2>=          58801.0752
 Charge=             -0.0000 electrons
 Dipole moment (field-independent basis, Debye):
    X=              0.0004    Y=             -6.8715    Z=             -1.0035  Tot=              6.9444
 Quadrupole moment (field-independent basis, Debye-Ang):
   XX=           -298.0618   YY=           -323.7363   ZZ=           -320.1422
   XY=              0.0064   XZ=              0.0040   YZ=            -25.1844
 Traceless Quadrupole moment (field-independent basis, Debye-Ang):
   XX=             15.9183   YY=             -9.7562   ZZ=             -6.1621
   XY=              0.0064   XZ=              0.0040   YZ=            -25.1844
 Octapole moment (field-independent basis, Debye-Ang**2):
  XXX=             -0.0020  YYY=           -452.1632  ZZZ=              1.6253  XYY=              0.0694
  XXY=             51.8829  XXZ=            -93.5512  XZZ=             -0.0403  YZZ=            -47.0416
  YYZ=             38.0189  XYZ=              0.0150
 Hexadecapole moment (field-independent basis, Debye-Ang**3):
 XXXX=         -42424.6101 YYYY=         -31082.5075 ZZZZ=          -1722.4764 XXXY=              0.2262
 XXXZ=              0.0643 YYYX=              0.1694 YYYZ=           -395.5571 ZZZX=             -0.0698
 ZZZY=            150.6700 XXYY=         -11660.3444 XXZZ=          -7280.4012 YYZZ=          -5110.0089
 XXYZ=           -288.3793 YYXZ=              0.0325 ZZXY=              0.0608
 N-N= 7.563944109495D+03 E-N=-2.383061853618D+04  KE= 3.676899683516D+03
 Unable to Open any file for archive entry.
 1\1\GINC-HAMSI67\SP\RHSEH1PBE TD-FC\6-31G(d,p)\C38H14Cl2F10N6\PINARS\2
 1-Apr-2026\0\\# td=(nstates=20) hseh1pbe/6-31g(d,p) scrf=(cpcm,solvent
 =dichloromethane) geom=connectivity\\Title Card Required\\0,1\C,0,0.71
 4128,-2.493007,-0.868169\C,0,1.489687,-3.605509,-1.274924\C,0,2.812362
 ,-3.311486,-1.03099\C,0,2.867547,-2.012893,-0.480392\N,0,1.574829,-1.5
 42939,-0.410248\H,0,1.39845,-0.586652,-0.101337\H,0,1.0995,-4.524545,-
 1.684471\H,0,3.666427,-3.943481,-1.225648\C,0,-0.714456,-2.492995,-0.8
 68059\C,0,-1.490073,-3.605646,-1.274294\N,0,-1.575093,-1.542733,-0.410
 414\C,0,-2.81272,-3.311497,-1.030367\H,0,-1.099932,-4.524897,-1.683401
 \C,0,-2.86783,-2.01268,-0.480291\H,0,-1.398675,-0.586309,-0.101938\H,0
 ,-3.66681,-3.943566,-1.224668\C,0,-4.009639,-1.316114,-0.028703\C,0,4.
 009386,-1.316558,-0.028519\C,0,4.012241,0.00511,0.408569\C,0,5.128456,
 0.707716,1.001692\N,0,2.907467,0.818304,0.312578\C,0,4.671796,1.961886
 ,1.266891\H,0,6.107415,0.296554,1.206916\C,0,3.301529,1.991312,0.80626
 5\H,0,5.208262,2.789376,1.713007\C,0,-4.012444,0.005698,0.407942\C,0,-
 5.128684,0.708559,1.000718\N,0,-2.907586,0.818772,0.311887\C,0,-4.6719
 51,1.962754,1.265659\H,0,-6.107708,0.297534,1.205911\C,0,-3.301608,1.9
 91934,0.805246\H,0,-5.208401,2.790406,1.711496\N,0,-1.356896,3.273275,
 0.241779\N,0,1.357209,3.273016,0.242338\C,0,5.289668,-2.066556,-0.0222
 19\C,0,5.485224,-3.168638,0.811396\C,0,6.35286,-1.691339,-0.844624\C,0
 ,6.682939,-3.869214,0.830748\C,0,7.557916,-2.380236,-0.842618\C,0,7.72
 2204,-3.472083,-0.000562\C,0,-5.289965,-2.066042,-0.022188\C,0,-6.3530
 63,-1.691134,-0.844849\C,0,-5.485647,-3.167742,0.811901\C,0,-7.558155,
 -2.379971,-0.842644\C,0,-6.683398,-3.868252,0.831458\C,0,-7.72257,-3.4
 71435,-0.000117\C,0,2.505656,3.193732,0.814934\H,0,2.957497,4.0501,1.3
 33035\C,0,-2.505566,3.194239,0.813961\H,0,-2.957446,4.050738,1.331811\
 C,0,-0.710308,4.48911,0.155841\C,0,-1.38842,5.710305,0.018461\C,0,0.71
 0884,4.488974,0.156171\C,0,-0.701013,6.904743,-0.117571\H,0,-2.471465,
 5.721651,-0.031668\C,0,1.389285,5.710047,0.019128\C,0,0.702165,6.90461
 3,-0.117225\H,0,2.472357,5.721196,-0.030487\Cl,0,1.598742,8.372527,-0.
 325921\Cl,0,-1.597215,8.372821,-0.326726\F,0,-6.226776,-0.656856,-1.67
 3652\F,0,-8.550704,-2.005222,-1.644568\F,0,-8.871543,-4.134828,0.01069
 4\F,0,-6.843873,-4.908411,1.644526\F,0,-4.514136,-3.56655,1.631311\F,0
 ,4.513628,-3.56776,1.630553\F,0,6.843293,-4.90974,1.643371\F,0,8.87114
 2,-4.135539,0.010055\F,0,8.550551,-2.005185,-1.644294\F,0,6.226698,-0.
 656697,-1.672991\\Version=ES64L-G16RevC.02\State=1-A\HF=-3700.6752585\
 RMSD=3.943e-09\PG=C01 [X(C38H14Cl2F10N6)]\\@
 The archive entry for this job was punched.


 BE CAREFUL NOT TO BECOME TOO GOOD OF A SONGBIRD OR 
 THEY'LL THROW YOU INTO A CAGE.

                                    -- SNOOPY TO WOODSTOCK
 Job cpu time:       0 days  5 hours 40 minutes 29.4 seconds.
 Elapsed time:       0 days  0 hours  7 minutes 32.9 seconds.
 File lengths (MBytes):  RWF=  10062 Int=      0 D2E=      0 Chk=    626 Scr=      1
 Normal termination of Gaussian 16 at Tue Apr 21 18:40:29 2026.
