SLURM_NODELIST hamsi102
NUMBER OF TASKS 1
NUMBER OF CORES=56
 Entering Gaussian System, Link 0=/arf/sw/apps/gaussian/avx2/g16/g16
 Initial command:
 /arf/sw/apps/gaussian/avx2/g16/l1.exe "/tmp/5473178/Gau-1179206.inp" -scrdir="/tmp/5473178/"
 Entering Link 1 = /arf/sw/apps/gaussian/avx2/g16/l1.exe PID=   1179207.
  
 Copyright (c) 1988-2021, Gaussian, Inc.  All Rights Reserved.
  
 This is part of the Gaussian(R) 16 program.  It is based on
 the Gaussian(R) 09 system (copyright 2009, Gaussian, Inc.),
 the Gaussian(R) 03 system (copyright 2003, Gaussian, Inc.),
 the Gaussian(R) 98 system (copyright 1998, Gaussian, Inc.),
 the Gaussian(R) 94 system (copyright 1995, Gaussian, Inc.),
 the Gaussian 92(TM) system (copyright 1992, Gaussian, Inc.),
 the Gaussian 90(TM) system (copyright 1990, Gaussian, Inc.),
 the Gaussian 88(TM) system (copyright 1988, Gaussian, Inc.),
 the Gaussian 86(TM) system (copyright 1986, Carnegie Mellon
 University), and the Gaussian 82(TM) system (copyright 1983,
 Carnegie Mellon University). Gaussian is a federally registered
 trademark of Gaussian, Inc.
  
 This software contains proprietary and confidential information,
 including trade secrets, belonging to Gaussian, Inc.
  
 This software is provided under written license and may be
 used, copied, transmitted, or stored only in accord with that
 written license.
  
 The following legend is applicable only to US Government
 contracts under FAR:
  
                    RESTRICTED RIGHTS LEGEND
  
 Use, reproduction and disclosure by the US Government is
 subject to restrictions as set forth in subparagraphs (a)
 and (c) of the Commercial Computer Software - Restricted
 Rights clause in FAR 52.227-19.
  
 Gaussian, Inc.
 340 Quinnipiac St., Bldg. 40, Wallingford CT 06492
  
  
 ---------------------------------------------------------------
 Warning -- This program may not be used in any manner that
 competes with the business of Gaussian, Inc. or will provide
 assistance to any competitor of Gaussian, Inc.  The licensee
 of this program is prohibited from giving any competitor of
 Gaussian, Inc. access to this program.  By using this program,
 the user acknowledges that Gaussian, Inc. is engaged in the
 business of creating and licensing software in the field of
 computational chemistry and represents and warrants to the
 licensee that it is not a competitor of Gaussian, Inc. and that
 it will not use this program in any manner prohibited above.
 ---------------------------------------------------------------
  

 Cite this work as:
 Gaussian 16, Revision C.02,
 M. J. Frisch, G. W. Trucks, H. B. Schlegel, G. E. Scuseria, 
 M. A. Robb, J. R. Cheeseman, G. Scalmani, V. Barone, 
 G. A. Petersson, H. Nakatsuji, X. Li, M. Caricato, A. V. Marenich, 
 J. Bloino, B. G. Janesko, R. Gomperts, B. Mennucci, H. P. Hratchian, 
 J. V. Ortiz, A. F. Izmaylov, J. L. Sonnenberg, D. Williams-Young, 
 F. Ding, F. Lipparini, F. Egidi, J. Goings, B. Peng, A. Petrone, 
 T. Henderson, D. Ranasinghe, V. G. Zakrzewski, J. Gao, N. Rega, 
 G. Zheng, W. Liang, M. Hada, M. Ehara, K. Toyota, R. Fukuda, 
 J. Hasegawa, M. Ishida, T. Nakajima, Y. Honda, O. Kitao, H. Nakai, 
 T. Vreven, K. Throssell, J. A. Montgomery, Jr., J. E. Peralta, 
 F. Ogliaro, M. J. Bearpark, J. J. Heyd, E. N. Brothers, K. N. Kudin, 
 V. N. Staroverov, T. A. Keith, R. Kobayashi, J. Normand, 
 K. Raghavachari, A. P. Rendell, J. C. Burant, S. S. Iyengar, 
 J. Tomasi, M. Cossi, J. M. Millam, M. Klene, C. Adamo, R. Cammi, 
 J. W. Ochterski, R. L. Martin, K. Morokuma, O. Farkas, 
 J. B. Foresman, and D. J. Fox, Gaussian, Inc., Wallingford CT, 2019.
 
 ******************************************
 Gaussian 16:  ES64L-G16RevC.02  7-Dec-2021
                 2-Apr-2026 
 ******************************************
 %nprocshared=56
 Will use up to   56 processors via shared memory.
 %mem=76GB
 %chk=B2_td.chk
 ----------------------------------------------------------------------
 # td=(nstates=20) hseh1pbe/6-31g(d,p) scrf=(cpcm,solvent=dichlorometha
 ne) geom=connectivity
 ----------------------------------------------------------------------
 1/38=1,57=2,172=1/1;
 2/12=2,17=6,18=5,40=1/2;
 3/5=1,6=6,7=101,11=9,25=1,30=1,70=2101,72=9,74=-51/1,2,3,8;
 4//1;
 5/5=2,38=5,53=9/2;
 8/6=1,10=2,108=20/1;
 9/41=20,42=1,70=2/14;
 6/7=2,8=2,9=2,10=2/1;
 99/5=1,9=1/99;
 -------------------
 Title Card Required
 -------------------
 Symbolic Z-matrix:
 Charge =  0 Multiplicity = 1
 C                     0.71427  -1.8118   -0.83526 
 C                     1.49024  -2.93603  -1.20574 
 C                     2.8135   -2.63307  -0.97313 
 C                     2.86832  -1.31747  -0.46584 
 N                     1.57533  -0.84652  -0.40941 
 H                     1.39923   0.1191   -0.13073 
 H                     1.10024  -3.86839  -1.58429 
 H                     3.66777  -3.27069  -1.14763 
 C                    -0.71434  -1.81182  -0.83518 
 C                    -1.4903   -2.93616  -1.20532 
 N                    -1.57537  -0.84649  -0.40941 
 C                    -2.81356  -2.63315  -0.97273 
 H                    -1.10032  -3.86863  -1.58361 
 C                    -2.86836  -1.31745  -0.4657 
 H                    -1.39928   0.1192   -0.13093 
 H                    -3.66783  -3.27083  -1.14703 
 C                    -4.01021  -0.60438  -0.03857 
 C                     4.01016  -0.6045   -0.03853 
 C                     4.01147   0.72945   0.3564 
 C                     5.12919   1.45247   0.92212 
 N                     2.90433   1.53819   0.24062 
 C                     4.67109   2.71311   1.15042 
 H                     6.10997   1.04959   1.13517 
 C                     3.29797   2.7267    0.69542 
 H                     5.2079    3.5551    1.56825 
 C                    -4.01153   0.72962   0.35613 
 C                    -5.12929   1.45276   0.92162 
 N                    -2.90436   1.53832   0.24038 
 C                    -4.67123   2.71345   1.14967 
 H                    -6.1101    1.04992   1.13465 
 C                    -3.29803   2.72692   0.69489 
 H                    -5.20808   3.55554   1.56727 
 N                    -1.35253   3.99562   0.10147 
 N                     1.35263   3.99554   0.10177 
 C                     5.29195  -1.35189  -0.01244 
 C                     5.4937   -2.42399   0.8578 
 C                     6.34997  -1.005    -0.85357 
 C                     6.69208  -3.12284   0.89441 
 C                     7.55589  -1.69226  -0.83447 
 C                     7.72624  -2.75403   0.04397 
 C                    -5.29202  -1.35176  -0.01239 
 C                    -6.34996  -1.00515  -0.85374 
 C                    -5.49383  -2.42363   0.85812 
 C                    -7.55584  -1.69246  -0.83458 
 C                    -6.69219  -3.12251   0.89482 
 C                    -7.72626  -2.75398   0.04415 
 C                     2.50245   3.93028   0.67259 
 H                     2.95853   4.80054   1.16316 
 C                    -2.50246   3.93047   0.67208 
 H                    -2.95857   4.80078   1.16253 
 C                    -0.7109    5.21492  -0.01629 
 C                    -1.39197   6.4346   -0.18424 
 C                     0.71112   5.21487  -0.0161 
 C                    -0.69921   7.62298  -0.34557 
 H                    -2.47631   6.42949  -0.23811 
 C                     1.3923    6.43452  -0.18387 
 C                     0.69966   7.62293  -0.34538 
 H                    -1.24419   8.54888  -0.50134 
 H                     2.47666   6.42935  -0.23746 
 H                     1.24473   8.54881  -0.501 
 F                    -6.21819  -0.00029  -1.7174 
 F                    -8.54359  -1.34472  -1.65472 
 F                    -8.87608  -3.41588   0.0712 
 F                    -6.85816  -4.13408   1.74241 
 F                    -4.52732  -2.79478   1.69645 
 F                     4.52716  -2.79537   1.69598 
 F                     6.858    -4.13467   1.7417 
 F                     8.87606  -3.41594   0.07093 
 F                     8.54373  -1.34424  -1.65438 
 F                     6.21828   0.00012  -1.71694 
 
 Stoichiometry    C38H16F10N6
 Framework group  C1[X(C38H16F10N6)]
 Deg. of freedom   204
 Full point group                 C1      NOp   1
 Largest Abelian subgroup         C1      NOp   1
 Largest concise Abelian subgroup C1      NOp   1
                         Standard orientation:                         
 ---------------------------------------------------------------------
 Center     Atomic      Atomic             Coordinates (Angstroms)
 Number     Number       Type             X           Y           Z
 ---------------------------------------------------------------------
      1          6           0        0.714274   -1.811802   -0.835262
      2          6           0        1.490236   -2.936029   -1.205736
      3          6           0        2.813496   -2.633068   -0.973132
      4          6           0        2.868317   -1.317467   -0.465837
      5          7           0        1.575327   -0.846523   -0.409411
      6          1           0        1.399227    0.119101   -0.130732
      7          1           0        1.100241   -3.868394   -1.584286
      8          1           0        3.667768   -3.270695   -1.147627
      9          6           0       -0.714337   -1.811821   -0.835184
     10          6           0       -1.490301   -2.936156   -1.205315
     11          7           0       -1.575372   -0.846487   -0.409410
     12          6           0       -2.813556   -2.633149   -0.972729
     13          1           0       -1.100317   -3.868628   -1.583612
     14          6           0       -2.868361   -1.317451   -0.465696
     15          1           0       -1.399275    0.119196   -0.130928
     16          1           0       -3.667826   -3.270830   -1.147033
     17          6           0       -4.010213   -0.604382   -0.038569
     18          6           0        4.010160   -0.604495   -0.038526
     19          6           0        4.011469    0.729448    0.356401
     20          6           0        5.129186    1.452474    0.922120
     21          7           0        2.904334    1.538186    0.240620
     22          6           0        4.671091    2.713111    1.150418
     23          1           0        6.109972    1.049593    1.135172
     24          6           0        3.297967    2.726697    0.695419
     25          1           0        5.207901    3.555101    1.568252
     26          6           0       -4.011529    0.729624    0.356127
     27          6           0       -5.129292    1.452761    0.921622
     28          7           0       -2.904355    1.538317    0.240375
     29          6           0       -4.671232    2.713452    1.149673
     30          1           0       -6.110099    1.049921    1.134653
     31          6           0       -3.298032    2.726917    0.694890
     32          1           0       -5.208081    3.555535    1.567268
     33          7           0       -1.352529    3.995623    0.101468
     34          7           0        1.352631    3.995537    0.101774
     35          6           0        5.291950   -1.351890   -0.012441
     36          6           0        5.493703   -2.423985    0.857799
     37          6           0        6.349974   -1.005000   -0.853572
     38          6           0        6.692078   -3.122841    0.894413
     39          6           0        7.555887   -1.692255   -0.834467
     40          6           0        7.726239   -2.754025    0.043971
     41          6           0       -5.292015   -1.351764   -0.012390
     42          6           0       -6.349956   -1.005154   -0.853740
     43          6           0       -5.493826   -2.423626    0.858117
     44          6           0       -7.555835   -1.692457   -0.834577
     45          6           0       -6.692187   -3.122513    0.894820
     46          6           0       -7.726258   -2.753982    0.044152
     47          6           0        2.502452    3.930282    0.672593
     48          1           0        2.958534    4.800543    1.163164
     49          6           0       -2.502458    3.930466    0.672078
     50          1           0       -2.958566    4.800779    1.162533
     51          6           0       -0.710902    5.214920   -0.016285
     52          6           0       -1.391969    6.434602   -0.184242
     53          6           0        0.711117    5.214873   -0.016102
     54          6           0       -0.699212    7.622977   -0.345566
     55          1           0       -2.476314    6.429491   -0.238114
     56          6           0        1.392299    6.434518   -0.183870
     57          6           0        0.699656    7.622934   -0.345376
     58          1           0       -1.244189    8.548884   -0.501336
     59          1           0        2.476658    6.429351   -0.237457
     60          1           0        1.244731    8.548809   -0.500995
     61          9           0       -6.218194   -0.000291   -1.717404
     62          9           0       -8.543586   -1.344721   -1.654715
     63          9           0       -8.876083   -3.415883    0.071203
     64          9           0       -6.858163   -4.134082    1.742412
     65          9           0       -4.527321   -2.794783    1.696452
     66          9           0        4.527161   -2.795370    1.695982
     67          9           0        6.858000   -4.134674    1.741704
     68          9           0        8.876059   -3.415940    0.070932
     69          9           0        8.543725   -1.344244   -1.654380
     70          9           0        6.218281    0.000124   -1.716943
 ---------------------------------------------------------------------
 Rotational constants (GHZ):           0.0626342           0.0250717           0.0188359
 Standard basis: 6-31G(d,p) (6D, 7F)
 There are   890 symmetry adapted cartesian basis functions of A   symmetry.
 There are   890 symmetry adapted basis functions of A   symmetry.
   890 basis functions,  1624 primitive gaussians,   890 cartesian basis functions
   188 alpha electrons      188 beta electrons
       nuclear repulsion energy      6758.5491688529 Hartrees.
 NAtoms=   70 NActive=   70 NUniq=   70 SFac= 1.00D+00 NAtFMM=   60 NAOKFM=T Big=T
 Integral buffers will be    131072 words long.
 Regular integral format.
 Two-electron integral symmetry is turned on.
 ------------------------------------------------------------------------------
 Polarizable Continuum Model (PCM)
 =================================
 Model                : C-PCM.
 Atomic radii         : UFF (Universal Force Field).
 Polarization charges : Total charges.
 Charge compensation  : None.
 Solution method      : On-the-fly selection.
 Cavity type          : Scaled VdW (van der Waals Surface) (Alpha=1.100).
 Cavity algorithm     : GePol (No added spheres)
                        Default sphere list used, NSphG=   70.
                        Lebedev-Laikov grids with approx.  5.0 points / Ang**2.
                        Smoothing algorithm: York/Karplus (Gamma=1.0000).
                        Polarization charges: spherical gaussians, with
                                              point-specific exponents (IZeta= 3).
                        Self-potential: point-specific (ISelfS= 7).
                        Self-field    : sphere-specific E.n sum rule (ISelfD= 2).
 Solvent              : Dichloromethane, Eps=   8.930000 Eps(inf)=   2.028346
 ------------------------------------------------------------------------------
 One-electron integrals computed using PRISM.
 NBasis=   890 RedAO= T EigKep=  2.97D-04  NBF=   890
 NBsUse=   890 1.00D-06 EigRej= -1.00D+00 NBFU=   890
 ExpMin= 1.61D-01 ExpMax= 7.00D+03 ExpMxC= 1.05D+03 IAcc=3 IRadAn=         5 AccDes= 0.00D+00
 Harris functional with IExCor= 1009 and IRadAn=       5 diagonalized for initial guess.
 HarFok:  IExCor= 1009 AccDes= 0.00D+00 IRadAn=         5 IDoV= 1 UseB2=F ITyADJ=14
 ICtDFT=  3500011 ScaDFX=  1.000000  1.000000  1.000000  1.000000
 FoFCou: FMM=F IPFlag=           0 FMFlag=      100000 FMFlg1=        2001
         NFxFlg=           0 DoJE=T BraDBF=F KetDBF=T FulRan=T
         wScrn=  0.000000 ICntrl=       500 IOpCl=  0 I1Cent=   200000004 NGrid=           0
         NMat0=    1 NMatS0=      1 NMatT0=    0 NMatD0=    1 NMtDS0=    0 NMtDT0=    0
 Petite list used in FoFCou.
 Requested convergence on RMS density matrix=1.00D-08 within 128 cycles.
 Requested convergence on MAX density matrix=1.00D-06.
 Requested convergence on             energy=1.00D-06.
 No special actions if energy rises.
 Inv3:  Mode=1 IEnd=    95158272.
 Iteration    1 A*A^-1 deviation from unit magnitude is 3.77D-15 for    344.
 Iteration    1 A*A^-1 deviation from orthogonality  is 3.46D-15 for   3045   2963.
 Iteration    1 A^-1*A deviation from unit magnitude is 3.55D-15 for    886.
 Iteration    1 A^-1*A deviation from orthogonality  is 2.44D-15 for   3455    854.
 Error on total polarization charges =  0.00799
 SCF Done:  E(RHSEH1PBE) =  -2781.77281528     A.U. after   14 cycles
            NFock= 14  Conv=0.24D-08     -V/T= 2.0077
 DoSCS=F DFT=T ScalE2(SS,OS)=  1.000000  1.000000
 ExpMin= 1.61D-01 ExpMax= 7.00D+03 ExpMxC= 1.05D+03 IAcc=3 IRadAn=         5 AccDes= 0.00D+00
 HarFok:  IExCor=  205 AccDes= 0.00D+00 IRadAn=         5 IDoV=-2 UseB2=F ITyADJ=14
 ICtDFT= 12500011 ScaDFX=  1.000000  1.000000  1.000000  1.000000
 GSVD:  LWork=       -3348 too small for GESVD, short by       15390 words or       15390 for optimal perf.
 Range of M.O.s used for correlation:    55   890
 NBasis=   890 NAE=   188 NBE=   188 NFC=    54 NFV=     0
 NROrb=    836 NOA=   134 NOB=   134 NVA=   702 NVB=   702

 **** Warning!!: The smallest alpha delta epsilon is  0.62090507D-01

 NEqPCM:  Using non-equilibrium solvation (IEInf=1, Eps=   8.9300, EpsInf=   2.0283)
 Inv3:  Mode=1 IEnd=    95158272.
 Iteration    1 A*A^-1 deviation from unit magnitude is 3.77D-15 for    344.
 Iteration    1 A*A^-1 deviation from orthogonality  is 3.46D-15 for   3045   2963.
 Iteration    1 A^-1*A deviation from unit magnitude is 3.55D-15 for    886.
 Iteration    1 A^-1*A deviation from orthogonality  is 2.44D-15 for   3455    854.
 Orbital symmetries:
       Occupied  (A) (A) (A) (A) (A) (A) (A) (A) (A) (A) (A) (A)
                 (A) (A) (A) (A) (A) (A) (A) (A) (A) (A) (A) (A)
                 (A) (A) (A) (A) (A) (A) (A) (A) (A) (A) (A) (A)
                 (A) (A) (A) (A) (A) (A) (A) (A) (A) (A) (A) (A)
                 (A) (A) (A) (A) (A) (A) (A) (A) (A) (A) (A) (A)
                 (A) (A) (A) (A) (A) (A) (A) (A) (A) (A) (A) (A)
                 (A) (A) (A) (A) (A) (A) (A) (A) (A) (A) (A) (A)
                 (A) (A) (A) (A) (A) (A) (A) (A) (A) (A) (A) (A)
                 (A) (A) (A) (A) (A) (A) (A) (A) (A) (A) (A) (A)
                 (A) (A) (A) (A) (A) (A) (A) (A) (A) (A) (A) (A)
                 (A) (A) (A) (A) (A) (A) (A) (A) (A) (A) (A) (A)
                 (A) (A) (A) (A) (A) (A) (A) (A) (A) (A) (A) (A)
                 (A) (A) (A) (A) (A) (A) (A) (A) (A) (A) (A) (A)
                 (A) (A) (A) (A) (A) (A) (A) (A) (A) (A) (A) (A)
                 (A) (A) (A) (A) (A) (A) (A) (A) (A) (A) (A) (A)
                 (A) (A) (A) (A) (A) (A) (A) (A)
       Virtual   (A) (A) (A) (A) (A) (A) (A) (A) (A) (A) (A) (A)
                 (A) (A) (A) (A) (A) (A) (A) (A) (A) (A) (A) (A)
                 (A) (A) (A) (A) (A) (A) (A) (A) (A) (A) (A) (A)
                 (A) (A) (A) (A) (A) (A) (A) (A) (A) (A) (A) (A)
                 (A) (A) (A) (A) (A) (A) (A) (A) (A) (A) (A) (A)
                 (A) (A) (A) (A) (A) (A) (A) (A) (A) (A) (A) (A)
                 (A) (A) (A) (A) (A) (A) (A) (A) (A) (A) (A) (A)
                 (A) (A) (A) (A) (A) (A) (A) (A) (A) (A) (A) (A)
                 (A) (A) (A) (A) (A) (A) (A) (A) (A) (A) (A) (A)
                 (A) (A) (A) (A) (A) (A) (A) (A) (A) (A) (A) (A)
                 (A) (A) (A) (A) (A) (A) (A) (A) (A) (A) (A) (A)
                 (A) (A) (A) (A) (A) (A) (A) (A) (A) (A) (A) (A)
                 (A) (A) (A) (A) (A) (A) (A) (A) (A) (A) (A) (A)
                 (A) (A) (A) (A) (A) (A) (A) (A) (A) (A) (A) (A)
                 (A) (A) (A) (A) (A) (A) (A) (A) (A) (A) (A) (A)
                 (A) (A) (A) (A) (A) (A) (A) (A) (A) (A) (A) (A)
                 (A) (A) (A) (A) (A) (A) (A) (A) (A) (A) (A) (A)
                 (A) (A) (A) (A) (A) (A) (A) (A) (A) (A) (A) (A)
                 (A) (A) (A) (A) (A) (A) (A) (A) (A) (A) (A) (A)
                 (A) (A) (A) (A) (A) (A) (A) (A) (A) (A) (A) (A)
                 (A) (A) (A) (A) (A) (A) (A) (A) (A) (A) (A) (A)
                 (A) (A) (A) (A) (A) (A) (A) (A) (A) (A) (A) (A)
                 (A) (A) (A) (A) (A) (A) (A) (A) (A) (A) (A) (A)
                 (A) (A) (A) (A) (A) (A) (A) (A) (A) (A) (A) (A)
                 (A) (A) (A) (A) (A) (A) (A) (A) (A) (A) (A) (A)
                 (A) (A) (A) (A) (A) (A) (A) (A) (A) (A) (A) (A)
                 (A) (A) (A) (A) (A) (A) (A) (A) (A) (A) (A) (A)
                 (A) (A) (A) (A) (A) (A) (A) (A) (A) (A) (A) (A)
                 (A) (A) (A) (A) (A) (A) (A) (A) (A) (A) (A) (A)
                 (A) (A) (A) (A) (A) (A) (A) (A) (A) (A) (A) (A)
                 (A) (A) (A) (A) (A) (A) (A) (A) (A) (A) (A) (A)
                 (A) (A) (A) (A) (A) (A) (A) (A) (A) (A) (A) (A)
                 (A) (A) (A) (A) (A) (A) (A) (A) (A) (A) (A) (A)
                 (A) (A) (A) (A) (A) (A) (A) (A) (A) (A) (A) (A)
                 (A) (A) (A) (A) (A) (A) (A) (A) (A) (A) (A) (A)
                 (A) (A) (A) (A) (A) (A) (A) (A) (A) (A) (A) (A)
                 (A) (A) (A) (A) (A) (A) (A) (A) (A) (A) (A) (A)
                 (A) (A) (A) (A) (A) (A) (A) (A) (A) (A) (A) (A)
                 (A) (A) (A) (A) (A) (A) (A) (A) (A) (A) (A) (A)
                 (A) (A) (A) (A) (A) (A) (A) (A) (A) (A) (A) (A)
                 (A) (A) (A) (A) (A) (A) (A) (A) (A) (A) (A) (A)
                 (A) (A) (A) (A) (A) (A) (A) (A) (A) (A) (A) (A)
                 (A) (A) (A) (A) (A) (A) (A) (A) (A) (A) (A) (A)
                 (A) (A) (A) (A) (A) (A) (A) (A) (A) (A) (A) (A)
                 (A) (A) (A) (A) (A) (A) (A) (A) (A) (A) (A) (A)
                 (A) (A) (A) (A) (A) (A) (A) (A) (A) (A) (A) (A)
                 (A) (A) (A) (A) (A) (A) (A) (A) (A) (A) (A) (A)
                 (A) (A) (A) (A) (A) (A) (A) (A) (A) (A) (A) (A)
                 (A) (A) (A) (A) (A) (A) (A) (A) (A) (A) (A) (A)
                 (A) (A) (A) (A) (A) (A) (A) (A) (A) (A) (A) (A)
                 (A) (A) (A) (A) (A) (A) (A) (A) (A) (A) (A) (A)
                 (A) (A) (A) (A) (A) (A) (A) (A) (A) (A) (A) (A)
                 (A) (A) (A) (A) (A) (A) (A) (A) (A) (A) (A) (A)
                 (A) (A) (A) (A) (A) (A) (A) (A) (A) (A) (A) (A)
                 (A) (A) (A) (A) (A) (A) (A) (A) (A) (A) (A) (A)
                 (A) (A) (A) (A) (A) (A) (A) (A) (A) (A) (A) (A)
                 (A) (A) (A) (A) (A) (A) (A) (A) (A) (A) (A) (A)
                 (A) (A) (A) (A) (A) (A) (A) (A) (A) (A) (A) (A)
                 (A) (A) (A) (A) (A) (A)
    80 initial guesses have been made.
 Convergence on wavefunction:    0.001000000000000
 Iteration     1 Dimension    80 NMult     0 NNew     80
 CISAX will form    80 AO SS matrices at one time.
 New state      3 was old state      6
 New state      6 was old state      7
 New state      7 was old state      8
 New state      8 was old state      9
 New state      9 was old state     10
 New state     10 was old state     14
 New state     13 was old state     15
 New state     14 was old state     25
 New state     15 was old state     26
 New state     16 was old state     13
 New state     17 was old state     23
 New state     18 was old state     16
 New state     19 was old state     17
 New state     20 was old state     21
 Iteration     2 Dimension   120 NMult    80 NNew     40
 New state      8 was old state     10
 New state      9 was old state      8
 New state     10 was old state      9
 New state     14 was old state     15
 New state     15 was old state     14
 New state     16 was old state     18
 New state     17 was old state     16
 New state     18 was old state     17
 Iteration     3 Dimension   160 NMult   120 NNew     40
 Iteration     4 Dimension   200 NMult   160 NNew     40
 No map to state     20
 Iteration     5 Dimension   232 NMult   200 NNew     32
 Iteration     6 Dimension   236 NMult   232 NNew      4
 Iteration     7 Dimension   238 NMult   236 NNew      2
 ***********************************************************************
 Excited states from <AA,BB:AA,BB> singles matrix:
 ***********************************************************************
 
 Ground to excited state transition densities written to RWF  633
 Ground to excited state transition electric dipole moments (Au):
       state          X           Y           Z        Dip. S.      Osc.
         1         2.6328      0.0002      0.0002      6.9315      0.3065
         2         0.0001     -1.1776      0.1331      1.4044      0.0699
         3         0.0006     -3.5657     -0.4804     12.9453      0.8185
         4        -2.7365     -0.0005     -0.0001      7.4882      0.4922
         5         0.6011     -0.0002     -0.0000      0.3613      0.0245
         6         0.8173      0.0007      0.0001      0.6680      0.0477
         7         0.0004     -1.4657     -0.1467      2.1697      0.1571
         8         0.0001     -3.0255     -0.6995      9.6428      0.7401
         9         0.5006      0.0006      0.0002      0.2506      0.0200
        10        -0.0006      0.2524      0.1906      0.1000      0.0080
        11        -1.9882     -0.0001     -0.0001      3.9530      0.3208
        12        -0.0002     -0.3264      0.1277      0.1228      0.0101
        13        -0.5933      0.0000      0.0000      0.3520      0.0305
        14         0.0005      0.0261     -0.0640      0.0048      0.0004
        15        -0.2023      0.0003     -0.0001      0.0409      0.0036
        16        -0.0003     -0.6591     -0.2295      0.4871      0.0429
        17         0.3570     -0.0007     -0.0004      0.1274      0.0113
        18         0.0002      0.5475      0.2797      0.3780      0.0338
        19        -0.0100      0.0003      0.0000      0.0001      0.0000
        20         0.1687     -0.0000     -0.0001      0.0285      0.0026
 Ground to excited state transition velocity dipole moments (Au):
       state          X           Y           Z        Dip. S.      Osc.
         1        -0.1701     -0.0000     -0.0000      0.0289      0.2908
         2        -0.0000      0.0851     -0.0136      0.0074      0.0664
         3        -0.0001      0.3277      0.0379      0.1088      0.7648
         4         0.2561      0.0000      0.0000      0.0656      0.4434
         5        -0.0635      0.0000     -0.0000      0.0040      0.0264
         6        -0.0888     -0.0001     -0.0000      0.0079      0.0491
         7        -0.0000      0.1551      0.0121      0.0242      0.1485
         8        -0.0000      0.3383      0.0791      0.1207      0.6991
         9        -0.0585     -0.0001     -0.0000      0.0034      0.0191
        10         0.0001     -0.0277     -0.0269      0.0015      0.0083
        11         0.2326      0.0000      0.0000      0.0541      0.2964
        12         0.0000      0.0404     -0.0217      0.0021      0.0113
        13         0.0701     -0.0000     -0.0000      0.0049      0.0252
        14        -0.0001     -0.0010      0.0010      0.0000      0.0000
        15         0.0230     -0.0000     -0.0000      0.0005      0.0027
        16         0.0000      0.0840      0.0300      0.0080      0.0401
        17        -0.0484      0.0001      0.0001      0.0023      0.0117
        18        -0.0000     -0.0704     -0.0438      0.0069      0.0341
        19         0.0014     -0.0000     -0.0000      0.0000      0.0000
        20        -0.0212     -0.0000      0.0000      0.0004      0.0022
 Ground to excited state transition magnetic dipole moments (Au):
       state          X           Y           Z
         1         0.0001      0.8540     -2.8742
         2        -0.0477      0.0000     -0.0002
         3        -0.2547     -0.0001      0.0000
         4         0.0001     -0.1274     -1.1485
         5        -0.0001     -0.0432      1.1421
         6         0.0001      0.3556     -0.0862
         7        -0.3443      0.0001     -0.0002
         8        -0.3315     -0.0002     -0.0001
         9         0.0002     -0.2970      0.0645
        10         0.1755      0.0003      0.0000
        11         0.0000     -0.1903     -1.1732
        12         0.1068      0.0000     -0.0001
        13        -0.0000      0.1567     -0.7844
        14         0.0831     -0.0006      0.0007
        15         0.0003      0.1913     -0.2780
        16        -0.0500      0.0000     -0.0004
        17        -0.0003      0.1391      0.5791
        18         0.2495      0.0001      0.0005
        19         0.0001      0.0786      0.1450
        20        -0.0000     -0.1627      0.3629
 Ground to excited state transition velocity quadrupole moments (Au):
       state          XX          YY          ZZ          XY          XZ          YZ
         1         0.0001     -0.0001     -0.0000     -0.4810     -0.2338     -0.0000
         2        -0.6804      1.0598     -0.0048      0.0000      0.0000     -0.0639
         3        -0.2371      2.1665     -0.0673      0.0001      0.0000     -0.2604
         4         0.0000      0.0003      0.0000     -0.0786      0.0862      0.0000
         5        -0.0000      0.0002      0.0000     -0.1852     -0.0237     -0.0001
         6         0.0002     -0.0005      0.0000      0.0156      0.0746      0.0000
         7        -0.5419      0.9860     -0.0241      0.0000      0.0001     -0.0651
         8        -0.3849      1.1604     -0.0331      0.0001      0.0002      0.0419
         9         0.0003     -0.0002      0.0000      0.0950      0.1878      0.0000
        10         0.3520     -0.1901      0.0000     -0.0001     -0.0002      0.0299
        11         0.0001      0.0001     -0.0000     -0.7753      0.0858     -0.0000
        12        -0.3214      0.9065      0.0193      0.0000     -0.0000     -0.1344
        13        -0.0003     -0.0001      0.0000     -0.5222     -0.0265      0.0000
        14         1.2103     -0.0087     -0.0310      0.0024      0.0002     -0.2000
        15         0.0036     -0.0001     -0.0001     -0.8541     -0.1068     -0.0006
        16         1.1330      0.6307     -0.0163     -0.0003     -0.0000     -0.0612
        17         0.0006      0.0002     -0.0000      0.3950      0.1469     -0.0000
        18        -0.3266     -0.0834      0.0149      0.0003      0.0001     -0.0117
        19        -0.0003     -0.0002      0.0000      0.8444      0.2597      0.0000
        20        -0.0004      0.0003     -0.0000      0.5302      0.1672      0.0000
 <0|del|b> * <b|rxdel|0> + <0|del|b> * <b|delr+rdel|0>
 Rotatory Strengths (R) in cgs (10**-40 erg-esu-cm/Gauss)
       state          XX          YY          ZZ    R(velocity)    E-M Angle
         1         0.1221      0.0931     -0.1338      0.0271       90.00
         2         0.0127      0.0191      0.0110      0.0143       90.00
         3        -0.1169      0.0904     -0.0302     -0.0189       90.00
         4        -0.0853      0.0761      0.0976      0.0295       90.00
         5        -0.0056      0.0311      0.0084      0.0113       90.00
         6        -0.0632     -0.0430     -0.1399     -0.0820       90.00
         7        -0.0145      0.0479      0.1022      0.0452       90.00
         8        -0.4345     -0.0274     -0.0505     -0.1708       90.00
         9         0.0721     -0.0257     -0.0049      0.0138       90.00
        10        -0.0326      0.0314      0.0227      0.0071       90.00
        11        -0.0432      0.0157      0.0187     -0.0030       90.00
        12         0.0106      0.0084      0.0148      0.0112       90.00
        13         0.0051      0.0055     -0.0126     -0.0007       90.00
        14         0.0104      0.0129     -0.0420     -0.0062       90.00
        15         0.0061     -0.0337      0.0517      0.0080       90.00
        16        -0.0507     -0.0242      0.0026     -0.0241       90.00
        17         0.1469      0.0630      0.1005      0.1035       90.00
        18        -0.0823     -0.0417     -0.0598     -0.0613       90.00
        19        -0.0112      0.0191     -0.0285     -0.0069       90.00
        20         0.0518     -0.0089      0.0026      0.0151       90.00
 1/2[<0|r|b>*<b|rxdel|0> + (<0|rxdel|b>*<b|r|0>)*]
 Rotatory Strengths (R) in cgs (10**-40 erg-esu-cm/Gauss)
       state          XX          YY          ZZ     R(length)
         1        -0.1410     -0.0948      0.3119      0.0254
         2         0.0034      0.0115      0.0208      0.0119
         3         0.0999     -0.1648      0.0089     -0.0187
         4         0.2376     -0.0409     -0.1067      0.0300
         5         0.0485     -0.0070      0.0046      0.0153
         6        -0.0848     -0.1714      0.0034     -0.0843
         7         0.0995      0.0573     -0.0202      0.0455
         8         0.0264     -0.5043     -0.0500     -0.1760
         9        -0.0539      0.1195     -0.0105      0.0184
        10         0.0718     -0.0471     -0.0052      0.0065
        11         0.0467     -0.0135     -0.0444     -0.0037
        12         0.0132      0.0057      0.0119      0.0102
        13        -0.0072     -0.0020      0.0231      0.0046
        14        -0.0276      0.0105      0.0295      0.0041
        15         0.0473     -0.0398     -0.0128     -0.0018
        16        -0.0117      0.0036     -0.0653     -0.0244
        17         0.0680      0.0693      0.1493      0.0955
        18        -0.0416     -0.0378     -0.0913     -0.0569
        19         0.0006     -0.0150     -0.0038     -0.0060
        20         0.0032     -0.0051      0.0134      0.0038
  1/2[<0|del|b>*<b|r|0> + (<0|r|b>*<b|del|0>)*] (Au)
       state          X           Y           Z        Dip. S.   Osc.(frdel)
         1        -0.4478     -0.0000     -0.0000      0.4478      0.2985
         2        -0.0000     -0.1003     -0.0018      0.1021      0.0680
         3        -0.0000     -1.1684     -0.0182      1.1866      0.7910
         4        -0.7007     -0.0000     -0.0000      0.7007      0.4672
         5        -0.0382     -0.0000      0.0000      0.0382      0.0254
         6        -0.0726     -0.0000     -0.0000      0.0726      0.0484
         7        -0.0000     -0.2273     -0.0018      0.2290      0.1527
         8        -0.0000     -1.0236     -0.0553      1.0790      0.7193
         9        -0.0293     -0.0000     -0.0000      0.0293      0.0195
        10        -0.0000     -0.0070     -0.0051      0.0121      0.0081
        11        -0.4625     -0.0000     -0.0000      0.4625      0.3083
        12        -0.0000     -0.0132     -0.0028      0.0160      0.0106
        13        -0.0416     -0.0000     -0.0000      0.0416      0.0277
        14        -0.0000     -0.0000     -0.0001      0.0001      0.0001
        15        -0.0046     -0.0000      0.0000      0.0046      0.0031
        16        -0.0000     -0.0554     -0.0069      0.0622      0.0415
        17        -0.0173     -0.0000     -0.0000      0.0173      0.0115
        18        -0.0000     -0.0385     -0.0122      0.0508      0.0338
        19        -0.0000     -0.0000     -0.0000      0.0000      0.0000
        20        -0.0036      0.0000     -0.0000      0.0036      0.0024

 Excitation energies and oscillator strengths:
 
 Excited State   1:      Singlet-A      1.8046 eV  687.05 nm  f=0.3065  <S**2>=0.000
     187 ->190         0.16588
     188 ->189         0.68661
 This state for optimization and/or second-order correction.
 Total Energy, E(TD-HF/TD-DFT) =  -2781.70649753    
 Copying the excited state density for this state as the 1-particle RhoCI density.
 
 Excited State   2:      Singlet-A      2.0301 eV  610.73 nm  f=0.0699  <S**2>=0.000
     187 ->189         0.61202
     188 ->190        -0.34804
 
 Excited State   3:      Singlet-A      2.5808 eV  480.41 nm  f=0.8185  <S**2>=0.000
     185 ->189        -0.29705
     187 ->189         0.30497
     188 ->190         0.56262
 
 Excited State   4:      Singlet-A      2.6830 eV  462.11 nm  f=0.4922  <S**2>=0.000
     180 ->189        -0.10793
     184 ->189         0.13467
     186 ->189         0.15964
     187 ->190         0.63671
     188 ->189        -0.15070
 
 Excited State   5:      Singlet-A      2.7677 eV  447.96 nm  f=0.0245  <S**2>=0.000
     186 ->189         0.67425
     187 ->190        -0.17836
 
 Excited State   6:      Singlet-A      2.9164 eV  425.13 nm  f=0.0477  <S**2>=0.000
     184 ->189         0.68185
     187 ->190        -0.14051
 
 Excited State   7:      Singlet-A      2.9545 eV  419.65 nm  f=0.1571  <S**2>=0.000
     183 ->189         0.57204
     185 ->189         0.37774
     188 ->190         0.10168
 
 Excited State   8:      Singlet-A      3.1328 eV  395.77 nm  f=0.7401  <S**2>=0.000
     183 ->189        -0.38898
     185 ->189         0.49859
     187 ->189         0.16271
     188 ->190         0.21999
 
 Excited State   9:      Singlet-A      3.2492 eV  381.58 nm  f=0.0200  <S**2>=0.000
     182 ->189         0.69920
 
 Excited State  10:      Singlet-A      3.2533 eV  381.11 nm  f=0.0080  <S**2>=0.000
     181 ->189         0.70010
 
 Excited State  11:      Singlet-A      3.3119 eV  374.36 nm  f=0.3208  <S**2>=0.000
     180 ->189         0.68177
 
 Excited State  12:      Singlet-A      3.3647 eV  368.49 nm  f=0.0101  <S**2>=0.000
     184 ->190         0.21515
     186 ->190         0.64017
 
 Excited State  13:      Singlet-A      3.5407 eV  350.17 nm  f=0.0305  <S**2>=0.000
     175 ->189         0.17482
     177 ->189         0.18607
     178 ->189        -0.23390
     185 ->190         0.57788
     188 ->192        -0.12397
 
 Excited State  14:      Singlet-A      3.5735 eV  346.95 nm  f=0.0004  <S**2>=0.000
     174 ->189         0.10013
     176 ->189         0.10286
     179 ->189         0.40444
     184 ->190         0.50417
     186 ->190        -0.17990
 
 Excited State  15:      Singlet-A      3.5760 eV  346.72 nm  f=0.0036  <S**2>=0.000
     175 ->189         0.14084
     177 ->189         0.11245
     178 ->189         0.63559
     185 ->190         0.18378
 
 Excited State  16:      Singlet-A      3.5951 eV  344.87 nm  f=0.0429  <S**2>=0.000
     174 ->189         0.10464
     179 ->189         0.52931
     184 ->190        -0.39699
     186 ->190         0.15270
 
 Excited State  17:      Singlet-A      3.6307 eV  341.49 nm  f=0.0113  <S**2>=0.000
     174 ->190         0.13936
     175 ->189         0.51971
     177 ->189         0.26570
     183 ->190        -0.19324
     185 ->190        -0.28113
 
 Excited State  18:      Singlet-A      3.6512 eV  339.57 nm  f=0.0338  <S**2>=0.000
     173 ->189        -0.14045
     174 ->189         0.47779
     175 ->190         0.19269
     176 ->189         0.38178
     179 ->189        -0.17797
 
 Excited State  19:      Singlet-A      3.6705 eV  337.79 nm  f=0.0000  <S**2>=0.000
     175 ->189         0.17231
     183 ->190         0.65994
 
 Excited State  20:      Singlet-A      3.7737 eV  328.55 nm  f=0.0026  <S**2>=0.000
     175 ->189        -0.31711
     177 ->189         0.60905
 SavETr:  write IOETrn=   770 NScale= 10 NData=  16 NLR=1 NState=   20 LETran=     370.

 **********************************************************************

            Population analysis using the SCF Density.

 **********************************************************************

 Orbital symmetries:
       Occupied  (A) (A) (A) (A) (A) (A) (A) (A) (A) (A) (A) (A)
                 (A) (A) (A) (A) (A) (A) (A) (A) (A) (A) (A) (A)
                 (A) (A) (A) (A) (A) (A) (A) (A) (A) (A) (A) (A)
                 (A) (A) (A) (A) (A) (A) (A) (A) (A) (A) (A) (A)
                 (A) (A) (A) (A) (A) (A) (A) (A) (A) (A) (A) (A)
                 (A) (A) (A) (A) (A) (A) (A) (A) (A) (A) (A) (A)
                 (A) (A) (A) (A) (A) (A) (A) (A) (A) (A) (A) (A)
                 (A) (A) (A) (A) (A) (A) (A) (A) (A) (A) (A) (A)
                 (A) (A) (A) (A) (A) (A) (A) (A) (A) (A) (A) (A)
                 (A) (A) (A) (A) (A) (A) (A) (A) (A) (A) (A) (A)
                 (A) (A) (A) (A) (A) (A) (A) (A) (A) (A) (A) (A)
                 (A) (A) (A) (A) (A) (A) (A) (A) (A) (A) (A) (A)
                 (A) (A) (A) (A) (A) (A) (A) (A) (A) (A) (A) (A)
                 (A) (A) (A) (A) (A) (A) (A) (A) (A) (A) (A) (A)
                 (A) (A) (A) (A) (A) (A) (A) (A) (A) (A) (A) (A)
                 (A) (A) (A) (A) (A) (A) (A) (A)
       Virtual   (A) (A) (A) (A) (A) (A) (A) (A) (A) (A) (A) (A)
                 (A) (A) (A) (A) (A) (A) (A) (A) (A) (A) (A) (A)
                 (A) (A) (A) (A) (A) (A) (A) (A) (A) (A) (A) (A)
                 (A) (A) (A) (A) (A) (A) (A) (A) (A) (A) (A) (A)
                 (A) (A) (A) (A) (A) (A) (A) (A) (A) (A) (A) (A)
                 (A) (A) (A) (A) (A) (A) (A) (A) (A) (A) (A) (A)
                 (A) (A) (A) (A) (A) (A) (A) (A) (A) (A) (A) (A)
                 (A) (A) (A) (A) (A) (A) (A) (A) (A) (A) (A) (A)
                 (A) (A) (A) (A) (A) (A) (A) (A) (A) (A) (A) (A)
                 (A) (A) (A) (A) (A) (A) (A) (A) (A) (A) (A) (A)
                 (A) (A) (A) (A) (A) (A) (A) (A) (A) (A) (A) (A)
                 (A) (A) (A) (A) (A) (A) (A) (A) (A) (A) (A) (A)
                 (A) (A) (A) (A) (A) (A) (A) (A) (A) (A) (A) (A)
                 (A) (A) (A) (A) (A) (A) (A) (A) (A) (A) (A) (A)
                 (A) (A) (A) (A) (A) (A) (A) (A) (A) (A) (A) (A)
                 (A) (A) (A) (A) (A) (A) (A) (A) (A) (A) (A) (A)
                 (A) (A) (A) (A) (A) (A) (A) (A) (A) (A) (A) (A)
                 (A) (A) (A) (A) (A) (A) (A) (A) (A) (A) (A) (A)
                 (A) (A) (A) (A) (A) (A) (A) (A) (A) (A) (A) (A)
                 (A) (A) (A) (A) (A) (A) (A) (A) (A) (A) (A) (A)
                 (A) (A) (A) (A) (A) (A) (A) (A) (A) (A) (A) (A)
                 (A) (A) (A) (A) (A) (A) (A) (A) (A) (A) (A) (A)
                 (A) (A) (A) (A) (A) (A) (A) (A) (A) (A) (A) (A)
                 (A) (A) (A) (A) (A) (A) (A) (A) (A) (A) (A) (A)
                 (A) (A) (A) (A) (A) (A) (A) (A) (A) (A) (A) (A)
                 (A) (A) (A) (A) (A) (A) (A) (A) (A) (A) (A) (A)
                 (A) (A) (A) (A) (A) (A) (A) (A) (A) (A) (A) (A)
                 (A) (A) (A) (A) (A) (A) (A) (A) (A) (A) (A) (A)
                 (A) (A) (A) (A) (A) (A) (A) (A) (A) (A) (A) (A)
                 (A) (A) (A) (A) (A) (A) (A) (A) (A) (A) (A) (A)
                 (A) (A) (A) (A) (A) (A) (A) (A) (A) (A) (A) (A)
                 (A) (A) (A) (A) (A) (A) (A) (A) (A) (A) (A) (A)
                 (A) (A) (A) (A) (A) (A) (A) (A) (A) (A) (A) (A)
                 (A) (A) (A) (A) (A) (A) (A) (A) (A) (A) (A) (A)
                 (A) (A) (A) (A) (A) (A) (A) (A) (A) (A) (A) (A)
                 (A) (A) (A) (A) (A) (A) (A) (A) (A) (A) (A) (A)
                 (A) (A) (A) (A) (A) (A) (A) (A) (A) (A) (A) (A)
                 (A) (A) (A) (A) (A) (A) (A) (A) (A) (A) (A) (A)
                 (A) (A) (A) (A) (A) (A) (A) (A) (A) (A) (A) (A)
                 (A) (A) (A) (A) (A) (A) (A) (A) (A) (A) (A) (A)
                 (A) (A) (A) (A) (A) (A) (A) (A) (A) (A) (A) (A)
                 (A) (A) (A) (A) (A) (A) (A) (A) (A) (A) (A) (A)
                 (A) (A) (A) (A) (A) (A) (A) (A) (A) (A) (A) (A)
                 (A) (A) (A) (A) (A) (A) (A) (A) (A) (A) (A) (A)
                 (A) (A) (A) (A) (A) (A) (A) (A) (A) (A) (A) (A)
                 (A) (A) (A) (A) (A) (A) (A) (A) (A) (A) (A) (A)
                 (A) (A) (A) (A) (A) (A) (A) (A) (A) (A) (A) (A)
                 (A) (A) (A) (A) (A) (A) (A) (A) (A) (A) (A) (A)
                 (A) (A) (A) (A) (A) (A) (A) (A) (A) (A) (A) (A)
                 (A) (A) (A) (A) (A) (A) (A) (A) (A) (A) (A) (A)
                 (A) (A) (A) (A) (A) (A) (A) (A) (A) (A) (A) (A)
                 (A) (A) (A) (A) (A) (A) (A) (A) (A) (A) (A) (A)
                 (A) (A) (A) (A) (A) (A) (A) (A) (A) (A) (A) (A)
                 (A) (A) (A) (A) (A) (A) (A) (A) (A) (A) (A) (A)
                 (A) (A) (A) (A) (A) (A) (A) (A) (A) (A) (A) (A)
                 (A) (A) (A) (A) (A) (A) (A) (A) (A) (A) (A) (A)
                 (A) (A) (A) (A) (A) (A) (A) (A) (A) (A) (A) (A)
                 (A) (A) (A) (A) (A) (A) (A) (A) (A) (A) (A) (A)
                 (A) (A) (A) (A) (A) (A)
 The electronic state is 1-A.
 Alpha  occ. eigenvalues --  -24.81872 -24.81872 -24.81420 -24.81420 -24.81399
 Alpha  occ. eigenvalues --  -24.81399 -24.81335 -24.81334 -24.81262 -24.81262
 Alpha  occ. eigenvalues --  -14.45223 -14.45222 -14.39209 -14.39208 -14.37514
 Alpha  occ. eigenvalues --  -14.37514 -10.34719 -10.34719 -10.34451 -10.34450
 Alpha  occ. eigenvalues --  -10.34443 -10.34443 -10.34030 -10.34030 -10.34015
 Alpha  occ. eigenvalues --  -10.34015 -10.29736 -10.29691 -10.28321 -10.28321
 Alpha  occ. eigenvalues --  -10.28244 -10.28244 -10.27798 -10.27798 -10.27073
 Alpha  occ. eigenvalues --  -10.27073 -10.26379 -10.26330 -10.26205 -10.26205
 Alpha  occ. eigenvalues --  -10.26046 -10.26046 -10.24230 -10.24230 -10.23996
 Alpha  occ. eigenvalues --  -10.23996 -10.23167 -10.23129 -10.23083 -10.23065
 Alpha  occ. eigenvalues --  -10.22874 -10.22874 -10.22497 -10.22497  -1.28672
 Alpha  occ. eigenvalues --   -1.28672  -1.27906  -1.27906  -1.27399  -1.27399
 Alpha  occ. eigenvalues --   -1.26487  -1.26487  -1.26178  -1.26178  -1.02945
 Alpha  occ. eigenvalues --   -1.01538  -0.97820  -0.97450  -0.96028  -0.93779
 Alpha  occ. eigenvalues --   -0.92252  -0.92216  -0.86033  -0.85346  -0.85069
 Alpha  occ. eigenvalues --   -0.82425  -0.80944  -0.80099  -0.79289  -0.79283
 Alpha  occ. eigenvalues --   -0.78414  -0.78171  -0.77490  -0.77440  -0.76060
 Alpha  occ. eigenvalues --   -0.75436  -0.73603  -0.70656  -0.69873  -0.67471
 Alpha  occ. eigenvalues --   -0.67419  -0.67269  -0.67037  -0.65166  -0.62767
 Alpha  occ. eigenvalues --   -0.62727  -0.61526  -0.61267  -0.61151  -0.60607
 Alpha  occ. eigenvalues --   -0.60374  -0.60146  -0.59879  -0.59205  -0.58663
 Alpha  occ. eigenvalues --   -0.58471  -0.57619  -0.56878  -0.56166  -0.55503
 Alpha  occ. eigenvalues --   -0.55283  -0.55283  -0.54513  -0.54308  -0.53959
 Alpha  occ. eigenvalues --   -0.53522  -0.53070  -0.52970  -0.52650  -0.52565
 Alpha  occ. eigenvalues --   -0.51601  -0.51410  -0.50584  -0.50209  -0.50156
 Alpha  occ. eigenvalues --   -0.49439  -0.49115  -0.49011  -0.47757  -0.47651
 Alpha  occ. eigenvalues --   -0.47278  -0.47212  -0.47043  -0.46767  -0.46767
 Alpha  occ. eigenvalues --   -0.46181  -0.45458  -0.45378  -0.45068  -0.44748
 Alpha  occ. eigenvalues --   -0.44731  -0.44443  -0.44367  -0.43678  -0.43532
 Alpha  occ. eigenvalues --   -0.43421  -0.42580  -0.42379  -0.41822  -0.41803
 Alpha  occ. eigenvalues --   -0.41622  -0.41318  -0.41208  -0.41180  -0.40469
 Alpha  occ. eigenvalues --   -0.39899  -0.39295  -0.39132  -0.38896  -0.38556
 Alpha  occ. eigenvalues --   -0.38536  -0.38268  -0.38021  -0.37858  -0.37722
 Alpha  occ. eigenvalues --   -0.35687  -0.35627  -0.35217  -0.34761  -0.33607
 Alpha  occ. eigenvalues --   -0.31483  -0.29284  -0.28851  -0.28236  -0.28168
 Alpha  occ. eigenvalues --   -0.27805  -0.27284  -0.26831  -0.26760  -0.25780
 Alpha  occ. eigenvalues --   -0.25501  -0.25490  -0.24848  -0.24679  -0.24300
 Alpha  occ. eigenvalues --   -0.23902  -0.20780  -0.19392
 Alpha virt. eigenvalues --   -0.13183  -0.11022  -0.05190  -0.05015  -0.04078
 Alpha virt. eigenvalues --   -0.03650  -0.02615  -0.02587  -0.01435   0.00308
 Alpha virt. eigenvalues --    0.00336   0.00780   0.01757   0.04373   0.04504
 Alpha virt. eigenvalues --    0.07579   0.08215   0.08246   0.09364   0.09732
 Alpha virt. eigenvalues --    0.10076   0.10591   0.11267   0.11366   0.11789
 Alpha virt. eigenvalues --    0.11985   0.12154   0.12522   0.12672   0.13212
 Alpha virt. eigenvalues --    0.13824   0.13945   0.14700   0.14756   0.15473
 Alpha virt. eigenvalues --    0.15866   0.16206   0.16865   0.16895   0.17172
 Alpha virt. eigenvalues --    0.17749   0.17846   0.18073   0.19335   0.20150
 Alpha virt. eigenvalues --    0.20791   0.21470   0.21675   0.21901   0.22726
 Alpha virt. eigenvalues --    0.22945   0.23146   0.24220   0.24353   0.24958
 Alpha virt. eigenvalues --    0.25555   0.25801   0.25829   0.27006   0.27452
 Alpha virt. eigenvalues --    0.28026   0.28671   0.29583   0.30741   0.31354
 Alpha virt. eigenvalues --    0.31592   0.32625   0.32798   0.33022   0.33161
 Alpha virt. eigenvalues --    0.34076   0.34625   0.35648   0.36152   0.36208
 Alpha virt. eigenvalues --    0.37046   0.37502   0.37819   0.38636   0.38953
 Alpha virt. eigenvalues --    0.39561   0.40130   0.40833   0.41744   0.42797
 Alpha virt. eigenvalues --    0.43317   0.43939   0.44009   0.45335   0.46216
 Alpha virt. eigenvalues --    0.46353   0.46421   0.46944   0.46951   0.47044
 Alpha virt. eigenvalues --    0.47802   0.48323   0.49377   0.50348   0.50655
 Alpha virt. eigenvalues --    0.50997   0.51203   0.51347   0.51412   0.51491
 Alpha virt. eigenvalues --    0.51735   0.51975   0.51989   0.52142   0.52501
 Alpha virt. eigenvalues --    0.52723   0.53355   0.53828   0.53893   0.54582
 Alpha virt. eigenvalues --    0.54933   0.54990   0.55264   0.55291   0.55579
 Alpha virt. eigenvalues --    0.55635   0.56366   0.56423   0.56500   0.56678
 Alpha virt. eigenvalues --    0.56875   0.57196   0.57449   0.57690   0.58204
 Alpha virt. eigenvalues --    0.58361   0.58751   0.59130   0.59194   0.59929
 Alpha virt. eigenvalues --    0.60135   0.60287   0.60517   0.60712   0.61147
 Alpha virt. eigenvalues --    0.61306   0.61393   0.61771   0.62036   0.62457
 Alpha virt. eigenvalues --    0.62631   0.62712   0.63224   0.63242   0.63398
 Alpha virt. eigenvalues --    0.63713   0.63938   0.64188   0.64747   0.65153
 Alpha virt. eigenvalues --    0.65648   0.65743   0.66827   0.66930   0.67217
 Alpha virt. eigenvalues --    0.67301   0.67912   0.68113   0.69370   0.69816
 Alpha virt. eigenvalues --    0.71269   0.71318   0.72263   0.72949   0.73936
 Alpha virt. eigenvalues --    0.74103   0.75031   0.76453   0.76999   0.77047
 Alpha virt. eigenvalues --    0.77659   0.77841   0.78403   0.78848   0.79759
 Alpha virt. eigenvalues --    0.79855   0.80325   0.80588   0.81141   0.81255
 Alpha virt. eigenvalues --    0.81357   0.81626   0.81628   0.81885   0.82235
 Alpha virt. eigenvalues --    0.82807   0.83070   0.83321   0.83520   0.83877
 Alpha virt. eigenvalues --    0.83980   0.84616   0.84670   0.84913   0.85364
 Alpha virt. eigenvalues --    0.86037   0.86463   0.86690   0.86825   0.87576
 Alpha virt. eigenvalues --    0.87600   0.87649   0.89387   0.89655   0.91007
 Alpha virt. eigenvalues --    0.91185   0.91957   0.92152   0.92378   0.92696
 Alpha virt. eigenvalues --    0.93028   0.93293   0.94110   0.94442   0.95204
 Alpha virt. eigenvalues --    0.95514   0.96100   0.96638   0.97593   0.97888
 Alpha virt. eigenvalues --    0.99106   0.99232   0.99648   1.00420   1.01056
 Alpha virt. eigenvalues --    1.02112   1.02369   1.02894   1.02903   1.03304
 Alpha virt. eigenvalues --    1.05514   1.05716   1.05988   1.06792   1.07491
 Alpha virt. eigenvalues --    1.07658   1.08726   1.09837   1.10954   1.11275
 Alpha virt. eigenvalues --    1.11468   1.12332   1.13729   1.13817   1.14759
 Alpha virt. eigenvalues --    1.14911   1.15327   1.15679   1.16528   1.17003
 Alpha virt. eigenvalues --    1.18162   1.18268   1.18641   1.19182   1.19670
 Alpha virt. eigenvalues --    1.19862   1.20154   1.20241   1.20500   1.20721
 Alpha virt. eigenvalues --    1.20996   1.21301   1.21773   1.22090   1.22549
 Alpha virt. eigenvalues --    1.22890   1.22948   1.23482   1.23522   1.23952
 Alpha virt. eigenvalues --    1.24095   1.24505   1.24810   1.25878   1.26244
 Alpha virt. eigenvalues --    1.26321   1.27465   1.28319   1.28666   1.28807
 Alpha virt. eigenvalues --    1.29715   1.29809   1.30305   1.30424   1.31147
 Alpha virt. eigenvalues --    1.31443   1.32302   1.32501   1.33177   1.33302
 Alpha virt. eigenvalues --    1.33675   1.34158   1.34428   1.34588   1.35118
 Alpha virt. eigenvalues --    1.35509   1.35894   1.36099   1.36263   1.37143
 Alpha virt. eigenvalues --    1.37748   1.37969   1.37991   1.38972   1.39040
 Alpha virt. eigenvalues --    1.39178   1.39496   1.39622   1.40226   1.40306
 Alpha virt. eigenvalues --    1.40801   1.41006   1.41453   1.42161   1.42622
 Alpha virt. eigenvalues --    1.43071   1.43218   1.43993   1.44009   1.44631
 Alpha virt. eigenvalues --    1.45486   1.45510   1.45570   1.45870   1.46571
 Alpha virt. eigenvalues --    1.46638   1.47261   1.48443   1.49437   1.51224
 Alpha virt. eigenvalues --    1.52002   1.53185   1.54303   1.54442   1.55458
 Alpha virt. eigenvalues --    1.57452   1.59322   1.59439   1.60122   1.60335
 Alpha virt. eigenvalues --    1.61510   1.61632   1.62266   1.62962   1.63814
 Alpha virt. eigenvalues --    1.64556   1.64707   1.65172   1.67356   1.67596
 Alpha virt. eigenvalues --    1.68717   1.68740   1.69854   1.70494   1.70746
 Alpha virt. eigenvalues --    1.72146   1.72462   1.73048   1.73528   1.74083
 Alpha virt. eigenvalues --    1.74217   1.74851   1.75013   1.75017   1.75535
 Alpha virt. eigenvalues --    1.75598   1.75683   1.75717   1.75803   1.76136
 Alpha virt. eigenvalues --    1.76613   1.77055   1.77132   1.77249   1.77781
 Alpha virt. eigenvalues --    1.77810   1.78658   1.78689   1.79078   1.79978
 Alpha virt. eigenvalues --    1.80070   1.80257   1.80849   1.81122   1.81130
 Alpha virt. eigenvalues --    1.82020   1.82466   1.83191   1.83881   1.83986
 Alpha virt. eigenvalues --    1.85118   1.85405   1.85719   1.86035   1.86691
 Alpha virt. eigenvalues --    1.86753   1.87083   1.87111   1.87253   1.87427
 Alpha virt. eigenvalues --    1.87547   1.88293   1.88730   1.89076   1.89929
 Alpha virt. eigenvalues --    1.90272   1.90774   1.91033   1.91334   1.91631
 Alpha virt. eigenvalues --    1.91806   1.92033   1.92594   1.92838   1.93867
 Alpha virt. eigenvalues --    1.94151   1.94520   1.94737   1.95519   1.95697
 Alpha virt. eigenvalues --    1.95988   1.96224   1.98435   1.99069   1.99245
 Alpha virt. eigenvalues --    2.00332   2.01198   2.01576   2.01674   2.02077
 Alpha virt. eigenvalues --    2.02266   2.02636   2.03192   2.03450   2.03624
 Alpha virt. eigenvalues --    2.04328   2.05788   2.06561   2.06999   2.07049
 Alpha virt. eigenvalues --    2.07496   2.08695   2.09397   2.09973   2.11615
 Alpha virt. eigenvalues --    2.11989   2.12359   2.12831   2.13425   2.14779
 Alpha virt. eigenvalues --    2.14791   2.15219   2.15684   2.15894   2.16206
 Alpha virt. eigenvalues --    2.16756   2.17623   2.18480   2.18652   2.19206
 Alpha virt. eigenvalues --    2.19646   2.19750   2.19832   2.20612   2.21067
 Alpha virt. eigenvalues --    2.22782   2.23433   2.23675   2.24569   2.24816
 Alpha virt. eigenvalues --    2.25255   2.25322   2.25945   2.26147   2.26689
 Alpha virt. eigenvalues --    2.27485   2.27679   2.27951   2.28388   2.28516
 Alpha virt. eigenvalues --    2.29243   2.29548   2.29950   2.30033   2.30759
 Alpha virt. eigenvalues --    2.31235   2.31435   2.32084   2.33567   2.33601
 Alpha virt. eigenvalues --    2.33931   2.34154   2.34266   2.35267   2.35760
 Alpha virt. eigenvalues --    2.36862   2.37003   2.37163   2.37219   2.37706
 Alpha virt. eigenvalues --    2.37871   2.38034   2.38396   2.39119   2.39535
 Alpha virt. eigenvalues --    2.39799   2.40561   2.40661   2.41296   2.41770
 Alpha virt. eigenvalues --    2.43122   2.43185   2.43259   2.43636   2.43848
 Alpha virt. eigenvalues --    2.44577   2.45324   2.46639   2.47244   2.47415
 Alpha virt. eigenvalues --    2.48076   2.48522   2.50279   2.50610   2.50696
 Alpha virt. eigenvalues --    2.51681   2.52315   2.52454   2.53302   2.53789
 Alpha virt. eigenvalues --    2.54458   2.54963   2.55827   2.55879   2.55941
 Alpha virt. eigenvalues --    2.56636   2.57050   2.57289   2.57767   2.58091
 Alpha virt. eigenvalues --    2.58461   2.58713   2.58983   2.59449   2.59641
 Alpha virt. eigenvalues --    2.61723   2.61928   2.62135   2.62569   2.63625
 Alpha virt. eigenvalues --    2.63879   2.64123   2.65163   2.65466   2.65988
 Alpha virt. eigenvalues --    2.67168   2.67317   2.68551   2.68716   2.71031
 Alpha virt. eigenvalues --    2.71592   2.71668   2.72246   2.73401   2.73480
 Alpha virt. eigenvalues --    2.73606   2.74779   2.75138   2.75445   2.76116
 Alpha virt. eigenvalues --    2.76298   2.77191   2.78371   2.79124   2.80270
 Alpha virt. eigenvalues --    2.80896   2.80958   2.82068   2.82498   2.82896
 Alpha virt. eigenvalues --    2.85469   2.86551   2.87712   2.88754   2.89183
 Alpha virt. eigenvalues --    2.89345   2.91909   2.92396   2.94400   2.95213
 Alpha virt. eigenvalues --    2.95304   2.97986   2.98087   2.98370   2.98825
 Alpha virt. eigenvalues --    2.98863   2.99341   3.01985   3.03549   3.03985
 Alpha virt. eigenvalues --    3.05841   3.06801   3.07967   3.08262   3.09245
 Alpha virt. eigenvalues --    3.09342   3.10586   3.10702   3.10799   3.11468
 Alpha virt. eigenvalues --    3.13287   3.13528   3.13781   3.14868   3.15829
 Alpha virt. eigenvalues --    3.15848   3.18360   3.21396   3.24727   3.25691
 Alpha virt. eigenvalues --    3.27431   3.27657   3.29961   3.30665   3.33101
 Alpha virt. eigenvalues --    3.35113   3.37834   3.39351   3.40134   3.40305
 Alpha virt. eigenvalues --    3.44126   3.47280   3.48772   3.51189   3.51836
 Alpha virt. eigenvalues --    3.55867   3.60007   3.66346   3.68629   3.72479
 Alpha virt. eigenvalues --    3.72517   3.75935   3.86193   4.01791   4.01826
 Alpha virt. eigenvalues --    4.02506   4.04254   4.04441   4.08793   4.09048
 Alpha virt. eigenvalues --    4.10383   4.13154   4.13765   4.13849   4.15670
 Alpha virt. eigenvalues --    4.16329   4.16896   4.17483   4.18321   4.20336
 Alpha virt. eigenvalues --    4.22277   4.24136   4.28803   4.31905   4.32121
 Alpha virt. eigenvalues --    4.34728   4.35526   4.36218   4.36510   4.40052
 Alpha virt. eigenvalues --    4.41808   4.44238   4.44941   4.45655   4.47842
 Alpha virt. eigenvalues --    4.50792   4.52712   4.55029   4.58200   4.60450
 Alpha virt. eigenvalues --    4.66656   4.71783   4.72706   4.75464   4.76419
 Alpha virt. eigenvalues --    4.83559   4.84529   4.86584   4.88136   5.11077
 Alpha virt. eigenvalues --    5.11163   5.76849   5.77344   6.20006   6.20137
 Alpha virt. eigenvalues --    6.95661   6.96006
          Condensed to atoms (all electrons):
 Mulliken charges:
               1
     1  C    0.333755
     2  C   -0.181535
     3  C   -0.154802
     4  C    0.304246
     5  N   -0.682785
     6  H    0.326737
     7  H    0.167048
     8  H    0.167976
     9  C    0.333763
    10  C   -0.181534
    11  N   -0.682797
    12  C   -0.154800
    13  H    0.167047
    14  C    0.304257
    15  H    0.326738
    16  H    0.167975
    17  C    0.014438
    18  C    0.014444
    19  C    0.246655
    20  C   -0.128509
    21  N   -0.636894
    22  C   -0.194476
    23  H    0.151404
    24  C    0.252489
    25  H    0.149549
    26  C    0.246669
    27  C   -0.128510
    28  N   -0.636900
    29  C   -0.194472
    30  H    0.151404
    31  C    0.252495
    32  H    0.149550
    33  N   -0.483878
    34  N   -0.483883
    35  C   -0.238215
    36  C    0.338735
    37  C    0.338641
    38  C    0.265162
    39  C    0.264473
    40  C    0.277889
    41  C   -0.238237
    42  C    0.338651
    43  C    0.338735
    44  C    0.264472
    45  C    0.265164
    46  C    0.277890
    47  C    0.080144
    48  H    0.138173
    49  C    0.080146
    50  H    0.138173
    51  C    0.216201
    52  C   -0.141623
    53  C    0.216210
    54  C   -0.146324
    55  H    0.149648
    56  C   -0.141623
    57  C   -0.146323
    58  H    0.147030
    59  H    0.149648
    60  H    0.147030
    61  F   -0.267723
    62  F   -0.270015
    63  F   -0.264721
    64  F   -0.270061
    65  F   -0.268848
    66  F   -0.268844
    67  F   -0.270063
    68  F   -0.264721
    69  F   -0.270013
    70  F   -0.267723
 Sum of Mulliken charges =  -0.00000
 Mulliken charges with hydrogens summed into heavy atoms:
               1
     1  C    0.333755
     2  C   -0.014487
     3  C    0.013174
     4  C    0.304246
     5  N   -0.356047
     9  C    0.333763
    10  C   -0.014487
    11  N   -0.356059
    12  C    0.013174
    14  C    0.304257
    17  C    0.014438
    18  C    0.014444
    19  C    0.246655
    20  C    0.022895
    21  N   -0.636894
    22  C   -0.044927
    24  C    0.252489
    26  C    0.246669
    27  C    0.022894
    28  N   -0.636900
    29  C   -0.044922
    31  C    0.252495
    33  N   -0.483878
    34  N   -0.483883
    35  C   -0.238215
    36  C    0.338735
    37  C    0.338641
    38  C    0.265162
    39  C    0.264473
    40  C    0.277889
    41  C   -0.238237
    42  C    0.338651
    43  C    0.338735
    44  C    0.264472
    45  C    0.265164
    46  C    0.277890
    47  C    0.218317
    49  C    0.218319
    51  C    0.216201
    52  C    0.008025
    53  C    0.216210
    54  C    0.000706
    56  C    0.008024
    57  C    0.000706
    61  F   -0.267723
    62  F   -0.270015
    63  F   -0.264721
    64  F   -0.270061
    65  F   -0.268848
    66  F   -0.268844
    67  F   -0.270063
    68  F   -0.264721
    69  F   -0.270013
    70  F   -0.267723
 Electronic spatial extent (au):  <R**2>=          49682.3708
 Charge=             -0.0000 electrons
 Dipole moment (field-independent basis, Debye):
    X=             -0.0001    Y=             -1.7307    Z=              0.6158  Tot=              1.8370
 Quadrupole moment (field-independent basis, Debye-Ang):
   XX=           -278.3940   YY=           -249.9503   ZZ=           -298.8351
   XY=             -0.0016   XZ=              0.0017   YZ=             20.3071
 Traceless Quadrupole moment (field-independent basis, Debye-Ang):
   XX=             -2.6676   YY=             25.7762   ZZ=            -23.1086
   XY=             -0.0016   XZ=              0.0017   YZ=             20.3071
 Octapole moment (field-independent basis, Debye-Ang**2):
  XXX=             -0.0095  YYY=            118.8793  ZZZ=              4.4280  XYY=             -0.0162
  XXY=             72.6900  XXZ=             89.2171  XZZ=              0.0261  YZZ=            -60.0723
  YYZ=            -40.4488  XYZ=              0.0165
 Hexadecapole moment (field-independent basis, Debye-Ang**3):
 XXXX=         -42245.0409 YYYY=         -15434.1388 ZZZZ=          -1656.2915 XXXY=             -0.1245
 XXXZ=              0.0076 YYYX=              0.1121 YYYZ=             19.8781 ZZZX=             -0.0282
 ZZZY=           -132.4170 XXYY=          -9608.1286 XXZZ=          -7252.3056 YYZZ=          -3382.0229
 XXYZ=            335.6925 YYXZ=              0.0429 ZZXY=             -0.0218
 N-N= 6.758549168853D+03 E-N=-2.003699223133D+04  KE= 2.760429539167D+03
 Unable to Open any file for archive entry.
 1\1\GINC-HAMSI102\SP\RHSEH1PBE TD-FC\6-31G(d,p)\C38H16F10N6\PINARS\02-
 Apr-2026\0\\# td=(nstates=20) hseh1pbe/6-31g(d,p) scrf=(cpcm,solvent=d
 ichloromethane) geom=connectivity\\Title Card Required\\0,1\C,0,0.7142
 74,-1.811802,-0.835262\C,0,1.490236,-2.936029,-1.205736\C,0,2.813496,-
 2.633068,-0.973132\C,0,2.868317,-1.317467,-0.465837\N,0,1.575327,-0.84
 6523,-0.409411\H,0,1.399227,0.119101,-0.130732\H,0,1.100241,-3.868394,
 -1.584286\H,0,3.667768,-3.270695,-1.147627\C,0,-0.714337,-1.811821,-0.
 835184\C,0,-1.490301,-2.936156,-1.205315\N,0,-1.575372,-0.846487,-0.40
 941\C,0,-2.813556,-2.633149,-0.972729\H,0,-1.100317,-3.868628,-1.58361
 2\C,0,-2.868361,-1.317451,-0.465696\H,0,-1.399275,0.119196,-0.130928\H
 ,0,-3.667826,-3.27083,-1.147033\C,0,-4.010213,-0.604382,-0.038569\C,0,
 4.01016,-0.604495,-0.038526\C,0,4.011469,0.729448,0.356401\C,0,5.12918
 6,1.452474,0.92212\N,0,2.904334,1.538186,0.24062\C,0,4.671091,2.713111
 ,1.150418\H,0,6.109972,1.049593,1.135172\C,0,3.297967,2.726697,0.69541
 9\H,0,5.207901,3.555101,1.568252\C,0,-4.011529,0.729624,0.356127\C,0,-
 5.129292,1.452761,0.921622\N,0,-2.904355,1.538317,0.240375\C,0,-4.6712
 32,2.713452,1.149673\H,0,-6.110099,1.049921,1.134653\C,0,-3.298032,2.7
 26917,0.69489\H,0,-5.208081,3.555535,1.567268\N,0,-1.352529,3.995623,0
 .101468\N,0,1.352631,3.995537,0.101774\C,0,5.29195,-1.35189,-0.012441\
 C,0,5.493703,-2.423985,0.857799\C,0,6.349974,-1.005,-0.853572\C,0,6.69
 2078,-3.122841,0.894413\C,0,7.555887,-1.692255,-0.834467\C,0,7.726239,
 -2.754025,0.043971\C,0,-5.292015,-1.351764,-0.01239\C,0,-6.349956,-1.0
 05154,-0.85374\C,0,-5.493826,-2.423626,0.858117\C,0,-7.555835,-1.69245
 7,-0.834577\C,0,-6.692187,-3.122513,0.89482\C,0,-7.726258,-2.753982,0.
 044152\C,0,2.502452,3.930282,0.672593\H,0,2.958534,4.800543,1.163164\C
 ,0,-2.502458,3.930466,0.672078\H,0,-2.958566,4.800779,1.162533\C,0,-0.
 710902,5.21492,-0.016285\C,0,-1.391969,6.434602,-0.184242\C,0,0.711117
 ,5.214873,-0.016102\C,0,-0.699212,7.622977,-0.345566\H,0,-2.476314,6.4
 29491,-0.238114\C,0,1.392299,6.434518,-0.18387\C,0,0.699656,7.622934,-
 0.345376\H,0,-1.244189,8.548884,-0.501336\H,0,2.476658,6.429351,-0.237
 457\H,0,1.244731,8.548809,-0.500995\F,0,-6.218194,-0.000291,-1.717404\
 F,0,-8.543586,-1.344721,-1.654715\F,0,-8.876083,-3.415883,0.071203\F,0
 ,-6.858163,-4.134082,1.742412\F,0,-4.527321,-2.794783,1.696452\F,0,4.5
 27161,-2.79537,1.695982\F,0,6.858,-4.134674,1.741704\F,0,8.876059,-3.4
 1594,0.070932\F,0,8.543725,-1.344244,-1.65438\F,0,6.218281,0.000124,-1
 .716943\\Version=ES64L-G16RevC.02\State=1-A\HF=-2781.7728153\RMSD=2.44
 8e-09\PG=C01 [X(C38H16F10N6)]\\@
 The archive entry for this job was punched.


 HEAVEN'S NET CASTS WIDE.
 THOUGH ITS MESHES ARE COARSE, NOTHING SLIPS THROUGH.

                                          -- LAO-TSU
 Job cpu time:       0 days  5 hours 36 minutes 51.3 seconds.
 Elapsed time:       0 days  0 hours  7 minutes 29.4 seconds.
 File lengths (MBytes):  RWF=   9474 Int=      0 D2E=      0 Chk=    678 Scr=      1
 Normal termination of Gaussian 16 at Thu Apr  2 14:41:18 2026.
