SLURM_NODELIST hamsi11
NUMBER OF TASKS 1
NUMBER OF CORES=56
 Entering Gaussian System, Link 0=/arf/sw/apps/gaussian/avx2/g16/g16
 Initial command:
 /arf/sw/apps/gaussian/avx2/g16/l1.exe "/tmp/5473551/Gau-606096.inp" -scrdir="/tmp/5473551/"
 Entering Link 1 = /arf/sw/apps/gaussian/avx2/g16/l1.exe PID=    606097.
  
 Copyright (c) 1988-2021, Gaussian, Inc.  All Rights Reserved.
  
 This is part of the Gaussian(R) 16 program.  It is based on
 the Gaussian(R) 09 system (copyright 2009, Gaussian, Inc.),
 the Gaussian(R) 03 system (copyright 2003, Gaussian, Inc.),
 the Gaussian(R) 98 system (copyright 1998, Gaussian, Inc.),
 the Gaussian(R) 94 system (copyright 1995, Gaussian, Inc.),
 the Gaussian 92(TM) system (copyright 1992, Gaussian, Inc.),
 the Gaussian 90(TM) system (copyright 1990, Gaussian, Inc.),
 the Gaussian 88(TM) system (copyright 1988, Gaussian, Inc.),
 the Gaussian 86(TM) system (copyright 1986, Carnegie Mellon
 University), and the Gaussian 82(TM) system (copyright 1983,
 Carnegie Mellon University). Gaussian is a federally registered
 trademark of Gaussian, Inc.
  
 This software contains proprietary and confidential information,
 including trade secrets, belonging to Gaussian, Inc.
  
 This software is provided under written license and may be
 used, copied, transmitted, or stored only in accord with that
 written license.
  
 The following legend is applicable only to US Government
 contracts under FAR:
  
                    RESTRICTED RIGHTS LEGEND
  
 Use, reproduction and disclosure by the US Government is
 subject to restrictions as set forth in subparagraphs (a)
 and (c) of the Commercial Computer Software - Restricted
 Rights clause in FAR 52.227-19.
  
 Gaussian, Inc.
 340 Quinnipiac St., Bldg. 40, Wallingford CT 06492
  
  
 ---------------------------------------------------------------
 Warning -- This program may not be used in any manner that
 competes with the business of Gaussian, Inc. or will provide
 assistance to any competitor of Gaussian, Inc.  The licensee
 of this program is prohibited from giving any competitor of
 Gaussian, Inc. access to this program.  By using this program,
 the user acknowledges that Gaussian, Inc. is engaged in the
 business of creating and licensing software in the field of
 computational chemistry and represents and warrants to the
 licensee that it is not a competitor of Gaussian, Inc. and that
 it will not use this program in any manner prohibited above.
 ---------------------------------------------------------------
  

 Cite this work as:
 Gaussian 16, Revision C.02,
 M. J. Frisch, G. W. Trucks, H. B. Schlegel, G. E. Scuseria, 
 M. A. Robb, J. R. Cheeseman, G. Scalmani, V. Barone, 
 G. A. Petersson, H. Nakatsuji, X. Li, M. Caricato, A. V. Marenich, 
 J. Bloino, B. G. Janesko, R. Gomperts, B. Mennucci, H. P. Hratchian, 
 J. V. Ortiz, A. F. Izmaylov, J. L. Sonnenberg, D. Williams-Young, 
 F. Ding, F. Lipparini, F. Egidi, J. Goings, B. Peng, A. Petrone, 
 T. Henderson, D. Ranasinghe, V. G. Zakrzewski, J. Gao, N. Rega, 
 G. Zheng, W. Liang, M. Hada, M. Ehara, K. Toyota, R. Fukuda, 
 J. Hasegawa, M. Ishida, T. Nakajima, Y. Honda, O. Kitao, H. Nakai, 
 T. Vreven, K. Throssell, J. A. Montgomery, Jr., J. E. Peralta, 
 F. Ogliaro, M. J. Bearpark, J. J. Heyd, E. N. Brothers, K. N. Kudin, 
 V. N. Staroverov, T. A. Keith, R. Kobayashi, J. Normand, 
 K. Raghavachari, A. P. Rendell, J. C. Burant, S. S. Iyengar, 
 J. Tomasi, M. Cossi, J. M. Millam, M. Klene, C. Adamo, R. Cammi, 
 J. W. Ochterski, R. L. Martin, K. Morokuma, O. Farkas, 
 J. B. Foresman, and D. J. Fox, Gaussian, Inc., Wallingford CT, 2019.
 
 ******************************************
 Gaussian 16:  ES64L-G16RevC.02  7-Dec-2021
                 2-Apr-2026 
 ******************************************
 %nprocshared=56
 Will use up to   56 processors via shared memory.
 %mem=76GB
 %chk=B7_td.chk
 ----------------------------------------------------------------------
 # td=(nstates=20) hseh1pbe/6-31g(d,p) scrf=(cpcm,solvent=dichlorometha
 ne) geom=connectivity
 ----------------------------------------------------------------------
 1/38=1,57=2,172=1/1;
 2/12=2,17=6,18=5,40=1/2;
 3/5=1,6=6,7=101,11=9,25=1,30=1,70=2101,72=9,74=-51/1,2,3,8;
 4//1;
 5/5=2,38=5,53=9/2;
 8/6=1,10=2,108=20/1;
 9/41=20,42=1,70=2/14;
 6/7=2,8=2,9=2,10=2/1;
 99/5=1,9=1/99;
 -------------------
 Title Card Required
 -------------------
 Symbolic Z-matrix:
 Charge =  0 Multiplicity = 1
 C                     0.71567  -2.1066   -0.82279 
 C                     1.48869  -3.22823  -1.20089 
 C                     2.81281  -2.93318  -0.95577 
 C                     2.87077  -1.62518  -0.42887 
 N                     1.57738  -1.1503   -0.37956 
 H                     1.40599  -0.17887  -0.1181 
 H                     1.09836  -4.15495  -1.59279 
 H                     3.66442  -3.57201  -1.13573 
 C                    -0.71568  -2.10667  -0.82269 
 C                    -1.48864  -3.22846  -1.2004 
 N                    -1.57742  -1.15027  -0.37973 
 C                    -2.81277  -2.93342  -0.95528 
 H                    -1.09827  -4.15533  -1.59191 
 C                    -2.87079  -1.62524  -0.42885 
 H                    -1.4061   -0.17871  -0.11866 
 H                    -3.66433  -3.5724   -1.13491 
 C                    -4.01617  -0.91082   0.00056 
 C                     4.01611  -0.91087   0.00086 
 C                     4.00541   0.43922   0.35386 
 C                     5.08983   1.17742   0.96387 
 N                     2.90614   1.24572   0.16525 
 C                     4.62152   2.44522   1.13406 
 H                     6.05524   0.78132   1.24602 
 C                     3.27677   2.44652   0.60909 
 H                     5.13644   3.29655   1.56063 
 C                    -4.00556   0.43939   0.35309 
 C                    -5.09009   1.17775   0.96272 
 N                    -2.90627   1.24586   0.16444 
 C                    -4.62185   2.44561   1.13258 
 H                    -6.05554   0.7817    1.24482 
 C                    -3.27697   2.44676   0.60794 
 H                    -5.13686   3.29706   1.5588 
 N                    -1.35126   3.6912   -0.09611 
 N                     1.35139   3.69113  -0.09547 
 C                     5.29159  -1.66095   0.07635 
 C                     5.38514  -2.84399   0.82366 
 C                     6.42852  -1.18939  -0.59526 
 C                     6.58262  -3.53751   0.90607 
 C                     7.62928  -1.87928  -0.52745 
 C                     7.70983  -3.05692   0.22673 
 C                    -5.29163  -1.66092   0.07628 
 C                    -6.42852  -1.18975  -0.59566 
 C                    -5.3852   -2.84359   0.82418 
 C                    -7.62927  -1.87963  -0.52755 
 C                    -6.58266  -3.5371    0.90689 
 C                    -7.70985  -3.05687   0.22725 
 C                     2.48092   3.64759   0.51475 
 H                     2.91765   4.536     0.99087 
 C                    -2.48105   3.64779   0.51366 
 H                    -2.91791   4.53627   0.98951 
 C                    -0.71031   4.90533  -0.2699 
 C                    -1.392     6.11506  -0.4899 
 C                     0.71058   4.90529  -0.26953 
 C                    -0.69874   7.29589  -0.70484 
 H                    -2.47666   6.10625  -0.53971 
 C                     1.39244   6.115    -0.48916 
 C                     0.69933   7.29586  -0.70446 
 H                    -1.24395   8.21411  -0.90041 
 H                     2.47712   6.10616  -0.53842 
 H                     1.24468   8.21406  -0.89974 
 H                    -6.3605   -0.28455  -1.18944 
 H                    -8.50198  -1.51529  -1.05811 
 H                    -6.65152  -4.4441    1.49724 
 H                    -4.51583  -3.20823   1.36101 
 H                     4.51576  -3.20891   1.36028 
 H                     6.36049  -0.28392  -1.18863 
 H                     6.65147  -4.44477   1.49602 
 H                     8.50201  -1.51468  -1.05779 
 C                    -8.94578  -3.77095   0.30379 
 C                     8.94576  -3.77103   0.30299 
 N                    -9.9503   -4.35144   0.3659 
 N                     9.95027  -4.35155   0.36488 
 
 Stoichiometry    C40H24N8
 Framework group  C1[X(C40H24N8)]
 Deg. of freedom   210
 Full point group                 C1      NOp   1
 Largest Abelian subgroup         C1      NOp   1
 Largest concise Abelian subgroup C1      NOp   1
                         Standard orientation:                         
 ---------------------------------------------------------------------
 Center     Atomic      Atomic             Coordinates (Angstroms)
 Number     Number       Type             X           Y           Z
 ---------------------------------------------------------------------
      1          6           0        0.715669   -2.106604   -0.822786
      2          6           0        1.488692   -3.228233   -1.200893
      3          6           0        2.812811   -2.933177   -0.955769
      4          6           0        2.870773   -1.625177   -0.428868
      5          7           0        1.577381   -1.150302   -0.379559
      6          1           0        1.405989   -0.178865   -0.118096
      7          1           0        1.098359   -4.154950   -1.592791
      8          1           0        3.664416   -3.572009   -1.135726
      9          6           0       -0.715675   -2.106665   -0.822692
     10          6           0       -1.488643   -3.228461   -1.200399
     11          7           0       -1.577423   -1.150266   -0.379731
     12          6           0       -2.812767   -2.933419   -0.955278
     13          1           0       -1.098269   -4.155325   -1.591907
     14          6           0       -2.870787   -1.625236   -0.428849
     15          1           0       -1.406102   -0.178705   -0.118661
     16          1           0       -3.664329   -3.572400   -1.134912
     17          6           0       -4.016173   -0.910823    0.000563
     18          6           0        4.016109   -0.910871    0.000855
     19          6           0        4.005409    0.439220    0.353858
     20          6           0        5.089829    1.177421    0.963865
     21          7           0        2.906140    1.245716    0.165252
     22          6           0        4.621524    2.445220    1.134057
     23          1           0        6.055236    0.781316    1.246024
     24          6           0        3.276766    2.446519    0.609091
     25          1           0        5.136437    3.296553    1.560625
     26          6           0       -4.005556    0.439388    0.353092
     27          6           0       -5.090087    1.177745    0.962718
     28          7           0       -2.906267    1.245855    0.164443
     29          6           0       -4.621853    2.445612    1.132580
     30          1           0       -6.055536    0.781704    1.244822
     31          6           0       -3.276967    2.446757    0.607935
     32          1           0       -5.136859    3.297065    1.558795
     33          7           0       -1.351264    3.691198   -0.096108
     34          7           0        1.351385    3.691127   -0.095472
     35          6           0        5.291592   -1.660945    0.076354
     36          6           0        5.385135   -2.843985    0.823659
     37          6           0        6.428523   -1.189390   -0.595256
     38          6           0        6.582615   -3.537509    0.906071
     39          6           0        7.629284   -1.879283   -0.527450
     40          6           0        7.709825   -3.056919    0.226729
     41          6           0       -5.291630   -1.660924    0.076280
     42          6           0       -6.428521   -1.189753   -0.595655
     43          6           0       -5.385196   -2.843585    0.824183
     44          6           0       -7.629274   -1.879628   -0.527548
     45          6           0       -6.582663   -3.537098    0.906886
     46          6           0       -7.709847   -3.056873    0.227251
     47          6           0        2.480923    3.647587    0.514753
     48          1           0        2.917653    4.535997    0.990874
     49          6           0       -2.481053    3.647785    0.513659
     50          1           0       -2.917914    4.536273    0.989512
     51          6           0       -0.710309    4.905325   -0.269895
     52          6           0       -1.392002    6.115057   -0.489900
     53          6           0        0.710584    4.905288   -0.269525
     54          6           0       -0.698736    7.295887   -0.704838
     55          1           0       -2.476664    6.106250   -0.539713
     56          6           0        1.392436    6.115002   -0.489164
     57          6           0        0.699329    7.295858   -0.704463
     58          1           0       -1.243946    8.214113   -0.900408
     59          1           0        2.477124    6.106163   -0.538415
     60          1           0        1.244680    8.214063   -0.899738
     61          1           0       -6.360504   -0.284548   -1.189442
     62          1           0       -8.501976   -1.515287   -1.058108
     63          1           0       -6.651521   -4.444097    1.497237
     64          1           0       -4.515831   -3.208226    1.361009
     65          1           0        4.515762   -3.208911    1.360277
     66          1           0        6.360491   -0.283919   -1.188634
     67          1           0        6.651472   -4.444767    1.496024
     68          1           0        8.502012   -1.514682   -1.057787
     69          6           0       -8.945783   -3.770951    0.303791
     70          6           0        8.945759   -3.771031    0.302988
     71          7           0       -9.950298   -4.351435    0.365897
     72          7           0        9.950267   -4.351552    0.364876
 ---------------------------------------------------------------------
 Rotational constants (GHZ):           0.0727483           0.0338606           0.0236793
 Standard basis: 6-31G(d,p) (6D, 7F)
 There are   840 symmetry adapted cartesian basis functions of A   symmetry.
 There are   840 symmetry adapted basis functions of A   symmetry.
   840 basis functions,  1512 primitive gaussians,   840 cartesian basis functions
   160 alpha electrons      160 beta electrons
       nuclear repulsion energy      5058.7256213207 Hartrees.
 NAtoms=   72 NActive=   72 NUniq=   72 SFac= 1.00D+00 NAtFMM=   60 NAOKFM=T Big=T
 Integral buffers will be    131072 words long.
 Regular integral format.
 Two-electron integral symmetry is turned on.
 ------------------------------------------------------------------------------
 Polarizable Continuum Model (PCM)
 =================================
 Model                : C-PCM.
 Atomic radii         : UFF (Universal Force Field).
 Polarization charges : Total charges.
 Charge compensation  : None.
 Solution method      : On-the-fly selection.
 Cavity type          : Scaled VdW (van der Waals Surface) (Alpha=1.100).
 Cavity algorithm     : GePol (No added spheres)
                        Default sphere list used, NSphG=   72.
                        Lebedev-Laikov grids with approx.  5.0 points / Ang**2.
                        Smoothing algorithm: York/Karplus (Gamma=1.0000).
                        Polarization charges: spherical gaussians, with
                                              point-specific exponents (IZeta= 3).
                        Self-potential: point-specific (ISelfS= 7).
                        Self-field    : sphere-specific E.n sum rule (ISelfD= 2).
 Solvent              : Dichloromethane, Eps=   8.930000 Eps(inf)=   2.028346
 ------------------------------------------------------------------------------
 One-electron integrals computed using PRISM.
 NBasis=   840 RedAO= T EigKep=  3.23D-04  NBF=   840
 NBsUse=   840 1.00D-06 EigRej= -1.00D+00 NBFU=   840
 ExpMin= 1.61D-01 ExpMax= 4.17D+03 ExpMxC= 6.27D+02 IAcc=3 IRadAn=         5 AccDes= 0.00D+00
 Harris functional with IExCor= 1009 and IRadAn=       5 diagonalized for initial guess.
 HarFok:  IExCor= 1009 AccDes= 0.00D+00 IRadAn=         5 IDoV= 1 UseB2=F ITyADJ=14
 ICtDFT=  3500011 ScaDFX=  1.000000  1.000000  1.000000  1.000000
 FoFCou: FMM=F IPFlag=           0 FMFlag=      100000 FMFlg1=        2001
         NFxFlg=           0 DoJE=T BraDBF=F KetDBF=T FulRan=T
         wScrn=  0.000000 ICntrl=       500 IOpCl=  0 I1Cent=   200000004 NGrid=           0
         NMat0=    1 NMatS0=      1 NMatT0=    0 NMatD0=    1 NMtDS0=    0 NMtDT0=    0
 Petite list used in FoFCou.
 Requested convergence on RMS density matrix=1.00D-08 within 128 cycles.
 Requested convergence on MAX density matrix=1.00D-06.
 Requested convergence on             energy=1.00D-06.
 No special actions if energy rises.
 Inv3:  Mode=1 IEnd=    88846092.
 Iteration    1 A*A^-1 deviation from unit magnitude is 4.00D-15 for   2034.
 Iteration    1 A*A^-1 deviation from orthogonality  is 2.88D-15 for   2389   2102.
 Iteration    1 A^-1*A deviation from unit magnitude is 3.77D-15 for   2034.
 Iteration    1 A^-1*A deviation from orthogonality  is 3.00D-15 for   1285    389.
 Error on total polarization charges =  0.01239
 SCF Done:  E(RHSEH1PBE) =  -1974.61471223     A.U. after   14 cycles
            NFock= 14  Conv=0.49D-08     -V/T= 2.0088
 DoSCS=F DFT=T ScalE2(SS,OS)=  1.000000  1.000000
 ExpMin= 1.61D-01 ExpMax= 4.17D+03 ExpMxC= 6.27D+02 IAcc=3 IRadAn=         5 AccDes= 0.00D+00
 HarFok:  IExCor=  205 AccDes= 0.00D+00 IRadAn=         5 IDoV=-2 UseB2=F ITyADJ=14
 ICtDFT= 12500011 ScaDFX=  1.000000  1.000000  1.000000  1.000000
 GSVD:  LWork=       -2688 too small for GESVD, short by       12240 words or       12240 for optimal perf.
 Range of M.O.s used for correlation:    49   840
 NBasis=   840 NAE=   160 NBE=   160 NFC=    48 NFV=     0
 NROrb=    792 NOA=   112 NOB=   112 NVA=   680 NVB=   680

 **** Warning!!: The smallest alpha delta epsilon is  0.63557965D-01

 NEqPCM:  Using non-equilibrium solvation (IEInf=1, Eps=   8.9300, EpsInf=   2.0283)
 Inv3:  Mode=1 IEnd=    88846092.
 Iteration    1 A*A^-1 deviation from unit magnitude is 4.00D-15 for   2034.
 Iteration    1 A*A^-1 deviation from orthogonality  is 2.88D-15 for   2389   2102.
 Iteration    1 A^-1*A deviation from unit magnitude is 3.77D-15 for   2034.
 Iteration    1 A^-1*A deviation from orthogonality  is 3.00D-15 for   1285    389.
 Orbital symmetries:
       Occupied  (A) (A) (A) (A) (A) (A) (A) (A) (A) (A) (A) (A)
                 (A) (A) (A) (A) (A) (A) (A) (A) (A) (A) (A) (A)
                 (A) (A) (A) (A) (A) (A) (A) (A) (A) (A) (A) (A)
                 (A) (A) (A) (A) (A) (A) (A) (A) (A) (A) (A) (A)
                 (A) (A) (A) (A) (A) (A) (A) (A) (A) (A) (A) (A)
                 (A) (A) (A) (A) (A) (A) (A) (A) (A) (A) (A) (A)
                 (A) (A) (A) (A) (A) (A) (A) (A) (A) (A) (A) (A)
                 (A) (A) (A) (A) (A) (A) (A) (A) (A) (A) (A) (A)
                 (A) (A) (A) (A) (A) (A) (A) (A) (A) (A) (A) (A)
                 (A) (A) (A) (A) (A) (A) (A) (A) (A) (A) (A) (A)
                 (A) (A) (A) (A) (A) (A) (A) (A) (A) (A) (A) (A)
                 (A) (A) (A) (A) (A) (A) (A) (A) (A) (A) (A) (A)
                 (A) (A) (A) (A) (A) (A) (A) (A) (A) (A) (A) (A)
                 (A) (A) (A) (A)
       Virtual   (A) (A) (A) (A) (A) (A) (A) (A) (A) (A) (A) (A)
                 (A) (A) (A) (A) (A) (A) (A) (A) (A) (A) (A) (A)
                 (A) (A) (A) (A) (A) (A) (A) (A) (A) (A) (A) (A)
                 (A) (A) (A) (A) (A) (A) (A) (A) (A) (A) (A) (A)
                 (A) (A) (A) (A) (A) (A) (A) (A) (A) (A) (A) (A)
                 (A) (A) (A) (A) (A) (A) (A) (A) (A) (A) (A) (A)
                 (A) (A) (A) (A) (A) (A) (A) (A) (A) (A) (A) (A)
                 (A) (A) (A) (A) (A) (A) (A) (A) (A) (A) (A) (A)
                 (A) (A) (A) (A) (A) (A) (A) (A) (A) (A) (A) (A)
                 (A) (A) (A) (A) (A) (A) (A) (A) (A) (A) (A) (A)
                 (A) (A) (A) (A) (A) (A) (A) (A) (A) (A) (A) (A)
                 (A) (A) (A) (A) (A) (A) (A) (A) (A) (A) (A) (A)
                 (A) (A) (A) (A) (A) (A) (A) (A) (A) (A) (A) (A)
                 (A) (A) (A) (A) (A) (A) (A) (A) (A) (A) (A) (A)
                 (A) (A) (A) (A) (A) (A) (A) (A) (A) (A) (A) (A)
                 (A) (A) (A) (A) (A) (A) (A) (A) (A) (A) (A) (A)
                 (A) (A) (A) (A) (A) (A) (A) (A) (A) (A) (A) (A)
                 (A) (A) (A) (A) (A) (A) (A) (A) (A) (A) (A) (A)
                 (A) (A) (A) (A) (A) (A) (A) (A) (A) (A) (A) (A)
                 (A) (A) (A) (A) (A) (A) (A) (A) (A) (A) (A) (A)
                 (A) (A) (A) (A) (A) (A) (A) (A) (A) (A) (A) (A)
                 (A) (A) (A) (A) (A) (A) (A) (A) (A) (A) (A) (A)
                 (A) (A) (A) (A) (A) (A) (A) (A) (A) (A) (A) (A)
                 (A) (A) (A) (A) (A) (A) (A) (A) (A) (A) (A) (A)
                 (A) (A) (A) (A) (A) (A) (A) (A) (A) (A) (A) (A)
                 (A) (A) (A) (A) (A) (A) (A) (A) (A) (A) (A) (A)
                 (A) (A) (A) (A) (A) (A) (A) (A) (A) (A) (A) (A)
                 (A) (A) (A) (A) (A) (A) (A) (A) (A) (A) (A) (A)
                 (A) (A) (A) (A) (A) (A) (A) (A) (A) (A) (A) (A)
                 (A) (A) (A) (A) (A) (A) (A) (A) (A) (A) (A) (A)
                 (A) (A) (A) (A) (A) (A) (A) (A) (A) (A) (A) (A)
                 (A) (A) (A) (A) (A) (A) (A) (A) (A) (A) (A) (A)
                 (A) (A) (A) (A) (A) (A) (A) (A) (A) (A) (A) (A)
                 (A) (A) (A) (A) (A) (A) (A) (A) (A) (A) (A) (A)
                 (A) (A) (A) (A) (A) (A) (A) (A) (A) (A) (A) (A)
                 (A) (A) (A) (A) (A) (A) (A) (A) (A) (A) (A) (A)
                 (A) (A) (A) (A) (A) (A) (A) (A) (A) (A) (A) (A)
                 (A) (A) (A) (A) (A) (A) (A) (A) (A) (A) (A) (A)
                 (A) (A) (A) (A) (A) (A) (A) (A) (A) (A) (A) (A)
                 (A) (A) (A) (A) (A) (A) (A) (A) (A) (A) (A) (A)
                 (A) (A) (A) (A) (A) (A) (A) (A) (A) (A) (A) (A)
                 (A) (A) (A) (A) (A) (A) (A) (A) (A) (A) (A) (A)
                 (A) (A) (A) (A) (A) (A) (A) (A) (A) (A) (A) (A)
                 (A) (A) (A) (A) (A) (A) (A) (A) (A) (A) (A) (A)
                 (A) (A) (A) (A) (A) (A) (A) (A) (A) (A) (A) (A)
                 (A) (A) (A) (A) (A) (A) (A) (A) (A) (A) (A) (A)
                 (A) (A) (A) (A) (A) (A) (A) (A) (A) (A) (A) (A)
                 (A) (A) (A) (A) (A) (A) (A) (A) (A) (A) (A) (A)
                 (A) (A) (A) (A) (A) (A) (A) (A) (A) (A) (A) (A)
                 (A) (A) (A) (A) (A) (A) (A) (A) (A) (A) (A) (A)
                 (A) (A) (A) (A) (A) (A) (A) (A) (A) (A) (A) (A)
                 (A) (A) (A) (A) (A) (A) (A) (A) (A) (A) (A) (A)
                 (A) (A) (A) (A) (A) (A) (A) (A) (A) (A) (A) (A)
                 (A) (A) (A) (A) (A) (A) (A) (A) (A) (A) (A) (A)
                 (A) (A) (A) (A) (A) (A) (A) (A) (A) (A) (A) (A)
                 (A) (A) (A) (A) (A) (A) (A) (A) (A) (A) (A) (A)
                 (A) (A) (A) (A) (A) (A) (A) (A)
    80 initial guesses have been made.
 Convergence on wavefunction:    0.001000000000000
 Iteration     1 Dimension    80 NMult     0 NNew     80
 CISAX will form    80 AO SS matrices at one time.
 New state      6 was old state      7
 New state      7 was old state      8
 New state      8 was old state     11
 New state      9 was old state     10
 New state     10 was old state      9
 New state     11 was old state     12
 New state     12 was old state      6
 New state     15 was old state     16
 New state     16 was old state     17
 New state     17 was old state     27
 New state     18 was old state     28
 New state     19 was old state     15
 New state     20 was old state     19
 Iteration     2 Dimension   120 NMult    80 NNew     40
 New state     16 was old state     17
 New state     17 was old state     16
 New state     18 was old state     19
 New state     19 was old state     18
 Iteration     3 Dimension   160 NMult   120 NNew     40
 Iteration     4 Dimension   200 NMult   160 NNew     40
 Iteration     5 Dimension   234 NMult   200 NNew     34
 Iteration     6 Dimension   236 NMult   234 NNew      2
 ***********************************************************************
 Excited states from <AA,BB:AA,BB> singles matrix:
 ***********************************************************************
 
 Ground to excited state transition densities written to RWF  633
 Ground to excited state transition electric dipole moments (Au):
       state          X           Y           Z        Dip. S.      Osc.
         1         2.6495      0.0001      0.0003      7.0200      0.3131
         2         0.0001     -1.3672      0.1842      1.9033      0.0951
         3         0.0011     -3.5032     -0.3674     12.4071      0.7763
         4        -3.0240     -0.0011     -0.0002      9.1447      0.5891
         5        -0.0668      0.0009      0.0001      0.0045      0.0003
         6         0.6825      0.0012      0.0001      0.4658      0.0334
         7         0.0008     -1.5697     -0.1274      2.4801      0.1789
         8         0.0003     -2.5311     -0.5510      6.7102      0.5099
         9        -2.4549     -0.0001     -0.0000      6.0267      0.4855
        10        -0.7503      0.0004     -0.0000      0.5630      0.0461
        11         0.0008      0.8350     -0.1229      0.7123      0.0587
        12         0.0001     -1.7147     -0.1521      2.9634      0.2459
        13        -0.9041     -0.0000      0.0000      0.8174      0.0701
        14        -0.0001      0.5629      0.0669      0.3214      0.0280
        15        -0.6063      0.0003      0.0001      0.3676      0.0325
        16         0.0003     -0.0006     -0.0002      0.0000      0.0000
        17         0.0008     -0.3360     -0.1196      0.1272      0.0113
        18         0.7708      0.0003     -0.0001      0.5942      0.0532
        19        -0.0001     -0.0564     -0.1247      0.0187      0.0017
        20         0.0002     -0.5267     -0.2164      0.3243      0.0299
 Ground to excited state transition velocity dipole moments (Au):
       state          X           Y           Z        Dip. S.      Osc.
         1        -0.1729     -0.0000     -0.0000      0.0299      0.2978
         2        -0.0000      0.0992     -0.0172      0.0101      0.0902
         3        -0.0001      0.3186      0.0272      0.1022      0.7262
         4         0.2791      0.0001      0.0000      0.0779      0.5374
         5         0.0116     -0.0001     -0.0000      0.0001      0.0009
         6        -0.0752     -0.0001     -0.0000      0.0057      0.0350
         7        -0.0001      0.1652      0.0103      0.0274      0.1688
         8        -0.0000      0.2807      0.0623      0.0827      0.4836
         9         0.2858      0.0000      0.0000      0.0817      0.4506
        10         0.0905     -0.0000      0.0000      0.0082      0.0445
        11        -0.0001     -0.1009      0.0197      0.0106      0.0570
        12        -0.0000      0.2067      0.0226      0.0432      0.2316
        13         0.1082      0.0000     -0.0000      0.0117      0.0607
        14         0.0000     -0.0691     -0.0152      0.0050      0.0256
        15         0.0781     -0.0000     -0.0000      0.0061      0.0307
        16        -0.0044      0.0001      0.0000      0.0000      0.0001
        17        -0.0001      0.0427      0.0231      0.0024      0.0117
        18        -0.0983     -0.0000     -0.0000      0.0097      0.0479
        19         0.0000      0.0074      0.0185      0.0004      0.0020
        20        -0.0000      0.0750      0.0279      0.0064      0.0309
 Ground to excited state transition magnetic dipole moments (Au):
       state          X           Y           Z
         1         0.0002      0.7855     -3.0416
         2        -0.0437     -0.0000     -0.0002
         3        -0.2774     -0.0001      0.0000
         4         0.0002     -0.1978     -1.3378
         5         0.0002      0.0634     -0.8873
         6         0.0003      0.3387     -0.0884
         7        -0.4070      0.0000     -0.0003
         8        -0.2706     -0.0003     -0.0001
         9         0.0001     -0.1410     -1.2582
        10        -0.0000     -0.3278      0.5825
        11        -0.0498      0.0001      0.0002
        12        -0.2904     -0.0002      0.0002
        13        -0.0000      0.1093     -0.8377
        14         0.0967      0.0000     -0.0001
        15         0.0002     -0.0124     -0.5817
        16        -0.0004      0.2317      0.2272
        17        -0.2093     -0.0005      0.0003
        18         0.0000      0.0257      0.8168
        19        -0.1141     -0.0000     -0.0002
        20        -0.0653      0.0002     -0.0007
 Ground to excited state transition velocity quadrupole moments (Au):
       state          XX          YY          ZZ          XY          XZ          YZ
         1         0.0001     -0.0001     -0.0001     -0.3115     -0.2324     -0.0001
         2        -0.9666      0.9191      0.0125      0.0001      0.0000     -0.0949
         3        -0.3652      1.6071     -0.0396      0.0002      0.0001     -0.3527
         4         0.0000      0.0005      0.0000     -0.6017      0.1137      0.0000
         5         0.0003     -0.0004      0.0000      0.2199      0.0090      0.0001
         6         0.0006     -0.0006      0.0000      0.1998      0.0774      0.0000
         7        -0.7975      0.6625     -0.0132      0.0003      0.0002     -0.0775
         8        -0.8363      0.2673     -0.0099      0.0002      0.0003      0.0348
         9         0.0003     -0.0000     -0.0000     -1.5875      0.0870      0.0001
        10         0.0004     -0.0003     -0.0000     -0.2961      0.1166      0.0001
        11         0.8438     -1.0707     -0.0317      0.0005     -0.0001      0.1774
        12        -0.9508      0.9661     -0.0366      0.0000      0.0001     -0.1754
        13         0.0001     -0.0002     -0.0000     -1.0930      0.0004      0.0000
        14         0.8766     -0.2009     -0.0116     -0.0004     -0.0002     -0.1299
        15         0.0006      0.0000      0.0000     -0.2619      0.0258     -0.0000
        16        -0.0020     -0.0004      0.0000      0.0978      0.1412      0.0001
        17        -0.9322     -0.1861      0.0047      0.0014     -0.0000      0.0770
        18         0.0010      0.0002      0.0001      1.5018      0.1728     -0.0001
        19         0.4998     -0.3660     -0.0341     -0.0003     -0.0000      0.0390
        20         3.0274      0.8111     -0.0497      0.0043     -0.0001     -0.2988
 <0|del|b> * <b|rxdel|0> + <0|del|b> * <b|delr+rdel|0>
 Rotatory Strengths (R) in cgs (10**-40 erg-esu-cm/Gauss)
       state          XX          YY          ZZ    R(velocity)    E-M Angle
         1         0.3511      0.1868     -0.2759      0.0874       90.00
         2        -0.0205      0.0238     -0.0096     -0.0021       90.00
         3        -0.2455      0.1989     -0.1031     -0.0499       90.00
         4        -0.2719      0.1867      0.2122      0.0423       90.00
         5        -0.0109      0.0238     -0.0191     -0.0021       90.00
         6        -0.1077     -0.0800     -0.2427     -0.1435       90.00
         7        -0.0622      0.1141      0.2058      0.0859       90.00
         8        -0.5448     -0.0333      0.0068     -0.1904       90.00
         9        -0.0260      0.1716      0.0683      0.0713       90.00
        10         0.0599      0.0214     -0.0026      0.0262       90.00
        11        -0.0115     -0.0501      0.0408     -0.0070       90.00
        12        -0.1769      0.0213     -0.0910     -0.0822       90.00
        13         0.0169     -0.0001     -0.0051      0.0039       90.00
        14        -0.0129     -0.0122      0.0335      0.0028       90.00
        15         0.0345      0.0603      0.0476      0.0475       90.00
        16         0.0483      0.0153      0.0823      0.0486       90.00
        17         0.0569     -0.0379      0.0140      0.0110       90.00
        18         0.0064      0.0218     -0.0611     -0.0110       90.00
        19        -0.0244      0.0032     -0.0069     -0.0093       90.00
        20         0.3067     -0.3414      0.0126     -0.0074       90.00
 1/2[<0|r|b>*<b|rxdel|0> + (<0|rxdel|b>*<b|r|0>)*]
 Rotatory Strengths (R) in cgs (10**-40 erg-esu-cm/Gauss)
       state          XX          YY          ZZ     R(length)
         1        -0.3950     -0.0624      0.6804      0.0743
         2         0.0023     -0.0340      0.0201     -0.0039
         3         0.2108     -0.3624      0.0095     -0.0474
         4         0.5124     -0.1509     -0.2274      0.0447
         5         0.0101     -0.0420      0.0321      0.0001
         6        -0.1515     -0.2849      0.0037     -0.1442
         7         0.2362      0.0528     -0.0296      0.0865
         8         0.0560     -0.5871     -0.0555     -0.1956
         9         0.2487     -0.0088     -0.0141      0.0752
        10        -0.0168      0.0871      0.0097      0.0267
        11         0.0289     -0.0773      0.0206     -0.0093
        12         0.0131     -0.2980      0.0261     -0.0862
        13        -0.0046      0.0036      0.0268      0.0086
        14         0.0056     -0.0062      0.0050      0.0015
        15         0.1000      0.0023      0.0235      0.0419
        16         0.0001      0.0952      0.0385      0.0446
        17         0.1186     -0.1124      0.0235      0.0099
        18        -0.0216     -0.0060      0.0324      0.0016
        19        -0.0100     -0.0013     -0.0166     -0.0093
        20         0.0075      0.0682     -0.1056     -0.0100
  1/2[<0|del|b>*<b|r|0> + (<0|r|b>*<b|del|0>)*] (Au)
       state          X           Y           Z        Dip. S.   Osc.(frdel)
         1        -0.4581     -0.0000     -0.0000      0.4581      0.3054
         2        -0.0000     -0.1357     -0.0032      0.1389      0.0926
         3        -0.0000     -1.1161     -0.0100      1.1260      0.7507
         4        -0.8440     -0.0000     -0.0000      0.8440      0.5626
         5        -0.0008     -0.0000     -0.0000      0.0008      0.0005
         6        -0.0513     -0.0000     -0.0000      0.0513      0.0342
         7        -0.0000     -0.2593     -0.0013      0.2606      0.1738
         8        -0.0000     -0.7106     -0.0343      0.7449      0.4966
         9        -0.7016     -0.0000     -0.0000      0.7016      0.4677
        10        -0.0679     -0.0000     -0.0000      0.0679      0.0453
        11        -0.0000     -0.0843     -0.0024      0.0867      0.0578
        12        -0.0000     -0.3545     -0.0034      0.3579      0.2386
        13        -0.0978     -0.0000     -0.0000      0.0978      0.0652
        14        -0.0000     -0.0389     -0.0010      0.0399      0.0266
        15        -0.0474     -0.0000     -0.0000      0.0474      0.0316
        16        -0.0000     -0.0000     -0.0000      0.0000      0.0000
        17        -0.0000     -0.0144     -0.0028      0.0171      0.0114
        18        -0.0758     -0.0000      0.0000      0.0758      0.0505
        19        -0.0000     -0.0004     -0.0023      0.0027      0.0018
        20        -0.0000     -0.0395     -0.0060      0.0456      0.0304

 Excitation energies and oscillator strengths:
 
 Excited State   1:      Singlet-A      1.8206 eV  681.00 nm  f=0.3131  <S**2>=0.000
     159 ->162         0.15480
     160 ->161         0.68794
 This state for optimization and/or second-order correction.
 Total Energy, E(TD-HF/TD-DFT) =  -1974.54780557    
 Copying the excited state density for this state as the 1-particle RhoCI density.
 
 Excited State   2:      Singlet-A      2.0404 eV  607.65 nm  f=0.0951  <S**2>=0.000
     159 ->161         0.61786
     160 ->162        -0.33712
 
 Excited State   3:      Singlet-A      2.5540 eV  485.46 nm  f=0.7763  <S**2>=0.000
     157 ->161        -0.26126
     159 ->161         0.29998
     160 ->162         0.57972
 
 Excited State   4:      Singlet-A      2.6292 eV  471.56 nm  f=0.5891  <S**2>=0.000
     159 ->162         0.66985
     160 ->161        -0.14965
 
 Excited State   5:      Singlet-A      2.7861 eV  445.01 nm  f=0.0003  <S**2>=0.000
     158 ->161         0.68976
 
 Excited State   6:      Singlet-A      2.9271 eV  423.57 nm  f=0.0334  <S**2>=0.000
     156 ->161         0.68830
 
 Excited State   7:      Singlet-A      2.9447 eV  421.04 nm  f=0.1789  <S**2>=0.000
     155 ->161         0.52469
     157 ->161         0.43817
     160 ->162         0.10544
 
 Excited State   8:      Singlet-A      3.1018 eV  399.71 nm  f=0.5099  <S**2>=0.000
     155 ->161        -0.45108
     157 ->161         0.46825
     159 ->161         0.13304
     160 ->162         0.17908
 
 Excited State   9:      Singlet-A      3.2884 eV  377.03 nm  f=0.4855  <S**2>=0.000
     154 ->161         0.66944
     160 ->163        -0.13046
 
 Excited State  10:      Singlet-A      3.3412 eV  371.08 nm  f=0.0461  <S**2>=0.000
     154 ->161         0.12303
     160 ->163         0.68674
 
 Excited State  11:      Singlet-A      3.3632 eV  368.65 nm  f=0.0587  <S**2>=0.000
     156 ->162        -0.20005
     158 ->162         0.63279
     160 ->164        -0.14757
 
 Excited State  12:      Singlet-A      3.3869 eV  366.07 nm  f=0.2459  <S**2>=0.000
     158 ->162         0.15087
     160 ->164         0.67657
 
 Excited State  13:      Singlet-A      3.4996 eV  354.28 nm  f=0.0701  <S**2>=0.000
     147 ->161         0.10559
     151 ->161         0.10494
     153 ->161         0.17804
     157 ->162         0.63224
 
 Excited State  14:      Singlet-A      3.5534 eV  348.91 nm  f=0.0280  <S**2>=0.000
     155 ->161        -0.10258
     156 ->162         0.64599
     158 ->162         0.20823
 
 Excited State  15:      Singlet-A      3.6085 eV  343.59 nm  f=0.0325  <S**2>=0.000
     147 ->161        -0.11419
     153 ->161        -0.42408
     155 ->162         0.44853
     156 ->161        -0.10444
     157 ->162         0.14131
     159 ->164         0.22430
 
 Excited State  16:      Singlet-A      3.6294 eV  341.61 nm  f=0.0000  <S**2>=0.000
     146 ->162        -0.10246
     147 ->161         0.43052
     148 ->162        -0.10422
     149 ->161        -0.24617
     151 ->161         0.40372
     153 ->161        -0.16219
     157 ->162        -0.13844
 
 Excited State  17:      Singlet-A      3.6406 eV  340.56 nm  f=0.0113  <S**2>=0.000
     146 ->161         0.34181
     147 ->162        -0.15860
     148 ->161         0.33940
     150 ->161        -0.29401
     152 ->161        -0.30889
     159 ->163        -0.16067
 
 Excited State  18:      Singlet-A      3.6578 eV  338.96 nm  f=0.0532  <S**2>=0.000
     153 ->161         0.35946
     155 ->162         0.52166
     157 ->162        -0.14059
     159 ->164        -0.22284
 
 Excited State  19:      Singlet-A      3.6998 eV  335.11 nm  f=0.0017  <S**2>=0.000
     146 ->161         0.16957
     148 ->161         0.17525
     150 ->161        -0.14510
     152 ->161         0.35206
     159 ->163         0.51011
 
 Excited State  20:      Singlet-A      3.7631 eV  329.47 nm  f=0.0299  <S**2>=0.000
     150 ->161        -0.18110
     152 ->161         0.50077
     159 ->163        -0.43414
 SavETr:  write IOETrn=   770 NScale= 10 NData=  16 NLR=1 NState=   20 LETran=     370.

 **********************************************************************

            Population analysis using the SCF Density.

 **********************************************************************

 Orbital symmetries:
       Occupied  (A) (A) (A) (A) (A) (A) (A) (A) (A) (A) (A) (A)
                 (A) (A) (A) (A) (A) (A) (A) (A) (A) (A) (A) (A)
                 (A) (A) (A) (A) (A) (A) (A) (A) (A) (A) (A) (A)
                 (A) (A) (A) (A) (A) (A) (A) (A) (A) (A) (A) (A)
                 (A) (A) (A) (A) (A) (A) (A) (A) (A) (A) (A) (A)
                 (A) (A) (A) (A) (A) (A) (A) (A) (A) (A) (A) (A)
                 (A) (A) (A) (A) (A) (A) (A) (A) (A) (A) (A) (A)
                 (A) (A) (A) (A) (A) (A) (A) (A) (A) (A) (A) (A)
                 (A) (A) (A) (A) (A) (A) (A) (A) (A) (A) (A) (A)
                 (A) (A) (A) (A) (A) (A) (A) (A) (A) (A) (A) (A)
                 (A) (A) (A) (A) (A) (A) (A) (A) (A) (A) (A) (A)
                 (A) (A) (A) (A) (A) (A) (A) (A) (A) (A) (A) (A)
                 (A) (A) (A) (A) (A) (A) (A) (A) (A) (A) (A) (A)
                 (A) (A) (A) (A)
       Virtual   (A) (A) (A) (A) (A) (A) (A) (A) (A) (A) (A) (A)
                 (A) (A) (A) (A) (A) (A) (A) (A) (A) (A) (A) (A)
                 (A) (A) (A) (A) (A) (A) (A) (A) (A) (A) (A) (A)
                 (A) (A) (A) (A) (A) (A) (A) (A) (A) (A) (A) (A)
                 (A) (A) (A) (A) (A) (A) (A) (A) (A) (A) (A) (A)
                 (A) (A) (A) (A) (A) (A) (A) (A) (A) (A) (A) (A)
                 (A) (A) (A) (A) (A) (A) (A) (A) (A) (A) (A) (A)
                 (A) (A) (A) (A) (A) (A) (A) (A) (A) (A) (A) (A)
                 (A) (A) (A) (A) (A) (A) (A) (A) (A) (A) (A) (A)
                 (A) (A) (A) (A) (A) (A) (A) (A) (A) (A) (A) (A)
                 (A) (A) (A) (A) (A) (A) (A) (A) (A) (A) (A) (A)
                 (A) (A) (A) (A) (A) (A) (A) (A) (A) (A) (A) (A)
                 (A) (A) (A) (A) (A) (A) (A) (A) (A) (A) (A) (A)
                 (A) (A) (A) (A) (A) (A) (A) (A) (A) (A) (A) (A)
                 (A) (A) (A) (A) (A) (A) (A) (A) (A) (A) (A) (A)
                 (A) (A) (A) (A) (A) (A) (A) (A) (A) (A) (A) (A)
                 (A) (A) (A) (A) (A) (A) (A) (A) (A) (A) (A) (A)
                 (A) (A) (A) (A) (A) (A) (A) (A) (A) (A) (A) (A)
                 (A) (A) (A) (A) (A) (A) (A) (A) (A) (A) (A) (A)
                 (A) (A) (A) (A) (A) (A) (A) (A) (A) (A) (A) (A)
                 (A) (A) (A) (A) (A) (A) (A) (A) (A) (A) (A) (A)
                 (A) (A) (A) (A) (A) (A) (A) (A) (A) (A) (A) (A)
                 (A) (A) (A) (A) (A) (A) (A) (A) (A) (A) (A) (A)
                 (A) (A) (A) (A) (A) (A) (A) (A) (A) (A) (A) (A)
                 (A) (A) (A) (A) (A) (A) (A) (A) (A) (A) (A) (A)
                 (A) (A) (A) (A) (A) (A) (A) (A) (A) (A) (A) (A)
                 (A) (A) (A) (A) (A) (A) (A) (A) (A) (A) (A) (A)
                 (A) (A) (A) (A) (A) (A) (A) (A) (A) (A) (A) (A)
                 (A) (A) (A) (A) (A) (A) (A) (A) (A) (A) (A) (A)
                 (A) (A) (A) (A) (A) (A) (A) (A) (A) (A) (A) (A)
                 (A) (A) (A) (A) (A) (A) (A) (A) (A) (A) (A) (A)
                 (A) (A) (A) (A) (A) (A) (A) (A) (A) (A) (A) (A)
                 (A) (A) (A) (A) (A) (A) (A) (A) (A) (A) (A) (A)
                 (A) (A) (A) (A) (A) (A) (A) (A) (A) (A) (A) (A)
                 (A) (A) (A) (A) (A) (A) (A) (A) (A) (A) (A) (A)
                 (A) (A) (A) (A) (A) (A) (A) (A) (A) (A) (A) (A)
                 (A) (A) (A) (A) (A) (A) (A) (A) (A) (A) (A) (A)
                 (A) (A) (A) (A) (A) (A) (A) (A) (A) (A) (A) (A)
                 (A) (A) (A) (A) (A) (A) (A) (A) (A) (A) (A) (A)
                 (A) (A) (A) (A) (A) (A) (A) (A) (A) (A) (A) (A)
                 (A) (A) (A) (A) (A) (A) (A) (A) (A) (A) (A) (A)
                 (A) (A) (A) (A) (A) (A) (A) (A) (A) (A) (A) (A)
                 (A) (A) (A) (A) (A) (A) (A) (A) (A) (A) (A) (A)
                 (A) (A) (A) (A) (A) (A) (A) (A) (A) (A) (A) (A)
                 (A) (A) (A) (A) (A) (A) (A) (A) (A) (A) (A) (A)
                 (A) (A) (A) (A) (A) (A) (A) (A) (A) (A) (A) (A)
                 (A) (A) (A) (A) (A) (A) (A) (A) (A) (A) (A) (A)
                 (A) (A) (A) (A) (A) (A) (A) (A) (A) (A) (A) (A)
                 (A) (A) (A) (A) (A) (A) (A) (A) (A) (A) (A) (A)
                 (A) (A) (A) (A) (A) (A) (A) (A) (A) (A) (A) (A)
                 (A) (A) (A) (A) (A) (A) (A) (A) (A) (A) (A) (A)
                 (A) (A) (A) (A) (A) (A) (A) (A) (A) (A) (A) (A)
                 (A) (A) (A) (A) (A) (A) (A) (A) (A) (A) (A) (A)
                 (A) (A) (A) (A) (A) (A) (A) (A) (A) (A) (A) (A)
                 (A) (A) (A) (A) (A) (A) (A) (A) (A) (A) (A) (A)
                 (A) (A) (A) (A) (A) (A) (A) (A) (A) (A) (A) (A)
                 (A) (A) (A) (A) (A) (A) (A) (A)
 The electronic state is 1-A.
 Alpha  occ. eigenvalues --  -14.45102 -14.45102 -14.39744 -14.39744 -14.39070
 Alpha  occ. eigenvalues --  -14.39070 -14.37346 -14.37346 -10.29600 -10.29556
 Alpha  occ. eigenvalues --  -10.28188 -10.28188 -10.28134 -10.28134 -10.27717
 Alpha  occ. eigenvalues --  -10.27717 -10.27679 -10.27679 -10.26993 -10.26993
 Alpha  occ. eigenvalues --  -10.26771 -10.26771 -10.26239 -10.26190 -10.25944
 Alpha  occ. eigenvalues --  -10.25944 -10.25790 -10.25790 -10.25777 -10.25777
 Alpha  occ. eigenvalues --  -10.25774 -10.25774 -10.25179 -10.25179 -10.25133
 Alpha  occ. eigenvalues --  -10.25133 -10.24100 -10.24099 -10.23829 -10.23828
 Alpha  occ. eigenvalues --  -10.23063 -10.23031 -10.22990 -10.22965 -10.22680
 Alpha  occ. eigenvalues --  -10.22680 -10.22268 -10.22268  -1.02781  -1.01373
 Alpha  occ. eigenvalues --   -0.97633  -0.97225  -0.95872  -0.93636  -0.93010
 Alpha  occ. eigenvalues --   -0.93006  -0.90154  -0.90102  -0.85718  -0.84945
 Alpha  occ. eigenvalues --   -0.84420  -0.82266  -0.80794  -0.79888  -0.78377
 Alpha  occ. eigenvalues --   -0.78369  -0.78213  -0.77914  -0.77207  -0.77197
 Alpha  occ. eigenvalues --   -0.75929  -0.75268  -0.73400  -0.70394  -0.69447
 Alpha  occ. eigenvalues --   -0.65931  -0.65845  -0.65123  -0.63870  -0.63744
 Alpha  occ. eigenvalues --   -0.62457  -0.62189  -0.61121  -0.60865  -0.60659
 Alpha  occ. eigenvalues --   -0.58352  -0.57557  -0.57505  -0.56939  -0.56877
 Alpha  occ. eigenvalues --   -0.56109  -0.55627  -0.53518  -0.53421  -0.51517
 Alpha  occ. eigenvalues --   -0.51459  -0.50921  -0.49743  -0.49233  -0.49155
 Alpha  occ. eigenvalues --   -0.48684  -0.48120  -0.47100  -0.46274  -0.45943
 Alpha  occ. eigenvalues --   -0.45791  -0.45310  -0.45267  -0.45047  -0.44452
 Alpha  occ. eigenvalues --   -0.44340  -0.43802  -0.43746  -0.43183  -0.42756
 Alpha  occ. eigenvalues --   -0.42450  -0.41629  -0.41532  -0.41203  -0.40957
 Alpha  occ. eigenvalues --   -0.40932  -0.40627  -0.40330  -0.39786  -0.39108
 Alpha  occ. eigenvalues --   -0.38827  -0.38379  -0.38050  -0.37886  -0.37858
 Alpha  occ. eigenvalues --   -0.37608  -0.37254  -0.37136  -0.36762  -0.36718
 Alpha  occ. eigenvalues --   -0.35598  -0.35559  -0.35104  -0.34567  -0.33971
 Alpha  occ. eigenvalues --   -0.33970  -0.33395  -0.31287  -0.29310  -0.28861
 Alpha  occ. eigenvalues --   -0.28166  -0.28056  -0.27765  -0.27676  -0.27457
 Alpha  occ. eigenvalues --   -0.27069  -0.26958  -0.26840  -0.25435  -0.24641
 Alpha  occ. eigenvalues --   -0.24505  -0.24065  -0.23769  -0.20590  -0.19355
 Alpha virt. eigenvalues --   -0.12999  -0.10963  -0.06748  -0.06705  -0.04916
 Alpha virt. eigenvalues --   -0.04528  -0.03640  -0.03639  -0.01429   0.00756
 Alpha virt. eigenvalues --    0.01747   0.01837   0.01851   0.04354   0.04494
 Alpha virt. eigenvalues --    0.05485   0.05488   0.07680   0.08109   0.08151
 Alpha virt. eigenvalues --    0.09231   0.09470   0.10103   0.10500   0.11362
 Alpha virt. eigenvalues --    0.11565   0.11956   0.12037   0.12136   0.12907
 Alpha virt. eigenvalues --    0.13130   0.13148   0.14260   0.14312   0.14873
 Alpha virt. eigenvalues --    0.14912   0.15077   0.15513   0.16000   0.16088
 Alpha virt. eigenvalues --    0.16271   0.16892   0.17191   0.17214   0.17822
 Alpha virt. eigenvalues --    0.18108   0.18148   0.18317   0.18883   0.19287
 Alpha virt. eigenvalues --    0.19334   0.19424   0.19994   0.20954   0.21865
 Alpha virt. eigenvalues --    0.22471   0.22671   0.23129   0.24983   0.25154
 Alpha virt. eigenvalues --    0.25528   0.25614   0.26373   0.26406   0.26441
 Alpha virt. eigenvalues --    0.26550   0.27566   0.28390   0.28457   0.29316
 Alpha virt. eigenvalues --    0.29438   0.30635   0.31489   0.31714   0.32721
 Alpha virt. eigenvalues --    0.32976   0.33433   0.33899   0.33978   0.34577
 Alpha virt. eigenvalues --    0.36074   0.37424   0.37515   0.38505   0.38556
 Alpha virt. eigenvalues --    0.38931   0.39705   0.40749   0.42194   0.42745
 Alpha virt. eigenvalues --    0.43326   0.43883   0.44223   0.45168   0.45248
 Alpha virt. eigenvalues --    0.45724   0.46103   0.48057   0.48153   0.49166
 Alpha virt. eigenvalues --    0.49463   0.49768   0.49874   0.50026   0.50852
 Alpha virt. eigenvalues --    0.51319   0.51328   0.51517   0.51684   0.52065
 Alpha virt. eigenvalues --    0.52115   0.52635   0.52720   0.53105   0.53197
 Alpha virt. eigenvalues --    0.53350   0.53884   0.54072   0.54447   0.55110
 Alpha virt. eigenvalues --    0.55234   0.55591   0.55698   0.56024   0.56170
 Alpha virt. eigenvalues --    0.56293   0.56973   0.57021   0.57111   0.57206
 Alpha virt. eigenvalues --    0.57238   0.57611   0.57673   0.57908   0.58520
 Alpha virt. eigenvalues --    0.58686   0.58810   0.58838   0.58980   0.59287
 Alpha virt. eigenvalues --    0.59568   0.59781   0.60229   0.60235   0.60535
 Alpha virt. eigenvalues --    0.60714   0.60784   0.61353   0.61697   0.61996
 Alpha virt. eigenvalues --    0.62060   0.62537   0.62756   0.62759   0.63202
 Alpha virt. eigenvalues --    0.63542   0.63920   0.63990   0.64374   0.64679
 Alpha virt. eigenvalues --    0.64693   0.64727   0.65161   0.65268   0.65351
 Alpha virt. eigenvalues --    0.65969   0.66138   0.67419   0.67553   0.68657
 Alpha virt. eigenvalues --    0.69172   0.69983   0.70524   0.70959   0.71058
 Alpha virt. eigenvalues --    0.71519   0.71542   0.71610   0.73414   0.74019
 Alpha virt. eigenvalues --    0.74902   0.75677   0.76693   0.77365   0.77537
 Alpha virt. eigenvalues --    0.77706   0.77952   0.78433   0.78518   0.79114
 Alpha virt. eigenvalues --    0.79647   0.80053   0.80160   0.80591   0.80726
 Alpha virt. eigenvalues --    0.80821   0.81445   0.81485   0.81588   0.82073
 Alpha virt. eigenvalues --    0.82290   0.82474   0.82791   0.82878   0.83105
 Alpha virt. eigenvalues --    0.83314   0.83442   0.83764   0.83920   0.84138
 Alpha virt. eigenvalues --    0.84334   0.84924   0.85048   0.85134   0.85322
 Alpha virt. eigenvalues --    0.85717   0.86019   0.86233   0.86668   0.86735
 Alpha virt. eigenvalues --    0.87092   0.87774   0.87797   0.89571   0.90155
 Alpha virt. eigenvalues --    0.90908   0.91147   0.91467   0.92897   0.93300
 Alpha virt. eigenvalues --    0.93414   0.93607   0.93778   0.94506   0.95214
 Alpha virt. eigenvalues --    0.95442   0.95600   0.97233   0.97568   0.97646
 Alpha virt. eigenvalues --    0.98597   0.99362   0.99896   1.00655   1.00675
 Alpha virt. eigenvalues --    1.00945   1.01153   1.01394   1.01787   1.02023
 Alpha virt. eigenvalues --    1.03424   1.04413   1.04493   1.05763   1.06521
 Alpha virt. eigenvalues --    1.06954   1.07788   1.07933   1.09403   1.10588
 Alpha virt. eigenvalues --    1.11051   1.11309   1.11627   1.12309   1.12391
 Alpha virt. eigenvalues --    1.12770   1.12787   1.14485   1.15466   1.16183
 Alpha virt. eigenvalues --    1.16197   1.17476   1.18223   1.18699   1.19428
 Alpha virt. eigenvalues --    1.19504   1.19800   1.19832   1.20959   1.21455
 Alpha virt. eigenvalues --    1.21852   1.22179   1.22537   1.22701   1.24054
 Alpha virt. eigenvalues --    1.24248   1.24977   1.26238   1.26677   1.27440
 Alpha virt. eigenvalues --    1.27927   1.29183   1.29641   1.30367   1.30541
 Alpha virt. eigenvalues --    1.30704   1.31068   1.31076   1.31456   1.32483
 Alpha virt. eigenvalues --    1.33333   1.33524   1.34142   1.34341   1.34435
 Alpha virt. eigenvalues --    1.34803   1.35494   1.35899   1.35908   1.36233
 Alpha virt. eigenvalues --    1.36555   1.36779   1.37616   1.37866   1.38719
 Alpha virt. eigenvalues --    1.38785   1.39109   1.39410   1.39638   1.39834
 Alpha virt. eigenvalues --    1.39922   1.41830   1.42018   1.42547   1.44219
 Alpha virt. eigenvalues --    1.44629   1.44636   1.45294   1.45369   1.46574
 Alpha virt. eigenvalues --    1.46868   1.47626   1.49416   1.49881   1.50119
 Alpha virt. eigenvalues --    1.51139   1.51255   1.52265   1.52604   1.53271
 Alpha virt. eigenvalues --    1.54350   1.55502   1.57791   1.58828   1.59657
 Alpha virt. eigenvalues --    1.60065   1.60835   1.61811   1.62067   1.63839
 Alpha virt. eigenvalues --    1.64375   1.66441   1.66836   1.67556   1.67571
 Alpha virt. eigenvalues --    1.69419   1.70290   1.71212   1.71687   1.72625
 Alpha virt. eigenvalues --    1.73649   1.74362   1.74623   1.74955   1.75104
 Alpha virt. eigenvalues --    1.75304   1.75877   1.76506   1.76858   1.77377
 Alpha virt. eigenvalues --    1.78881   1.79078   1.79637   1.79992   1.80007
 Alpha virt. eigenvalues --    1.81014   1.81712   1.81782   1.83345   1.83692
 Alpha virt. eigenvalues --    1.83959   1.84371   1.85193   1.85806   1.85955
 Alpha virt. eigenvalues --    1.86106   1.86841   1.87594   1.88395   1.89442
 Alpha virt. eigenvalues --    1.89889   1.90047   1.90117   1.90532   1.90914
 Alpha virt. eigenvalues --    1.91036   1.91097   1.91434   1.91656   1.91953
 Alpha virt. eigenvalues --    1.92206   1.92528   1.92778   1.92839   1.93008
 Alpha virt. eigenvalues --    1.93283   1.93914   1.94484   1.95129   1.95652
 Alpha virt. eigenvalues --    1.96122   1.96387   1.96501   1.97110   1.97155
 Alpha virt. eigenvalues --    1.98336   1.99028   1.99265   2.00192   2.01251
 Alpha virt. eigenvalues --    2.01441   2.01707   2.02207   2.02854   2.03318
 Alpha virt. eigenvalues --    2.03392   2.04918   2.04999   2.05760   2.06036
 Alpha virt. eigenvalues --    2.06049   2.07194   2.07505   2.07529   2.08391
 Alpha virt. eigenvalues --    2.09405   2.10176   2.10419   2.10629   2.11444
 Alpha virt. eigenvalues --    2.12350   2.12602   2.13010   2.13506   2.15240
 Alpha virt. eigenvalues --    2.16038   2.16120   2.17047   2.18670   2.19267
 Alpha virt. eigenvalues --    2.20062   2.20180   2.20865   2.21872   2.23159
 Alpha virt. eigenvalues --    2.24250   2.24266   2.25347   2.25689   2.26286
 Alpha virt. eigenvalues --    2.26474   2.27325   2.27444   2.27949   2.28072
 Alpha virt. eigenvalues --    2.29484   2.30084   2.30142   2.30479   2.32220
 Alpha virt. eigenvalues --    2.32635   2.33117   2.34048   2.34531   2.35448
 Alpha virt. eigenvalues --    2.36219   2.36846   2.37333   2.37800   2.37928
 Alpha virt. eigenvalues --    2.38457   2.38462   2.38859   2.39361   2.39574
 Alpha virt. eigenvalues --    2.39677   2.40208   2.40871   2.41078   2.41266
 Alpha virt. eigenvalues --    2.41465   2.41920   2.42072   2.42465   2.43750
 Alpha virt. eigenvalues --    2.44105   2.44696   2.44854   2.45783   2.46418
 Alpha virt. eigenvalues --    2.46636   2.47745   2.48353   2.48592   2.48643
 Alpha virt. eigenvalues --    2.48884   2.48947   2.49793   2.49813   2.50791
 Alpha virt. eigenvalues --    2.50922   2.51628   2.52334   2.53388   2.53534
 Alpha virt. eigenvalues --    2.54402   2.54642   2.55418   2.56078   2.56185
 Alpha virt. eigenvalues --    2.56926   2.57490   2.57514   2.57981   2.58091
 Alpha virt. eigenvalues --    2.58390   2.58639   2.58667   2.59338   2.60506
 Alpha virt. eigenvalues --    2.61440   2.61956   2.62144   2.62481   2.62831
 Alpha virt. eigenvalues --    2.63142   2.63801   2.64790   2.65351   2.65541
 Alpha virt. eigenvalues --    2.66259   2.66745   2.67798   2.68259   2.70603
 Alpha virt. eigenvalues --    2.70813   2.71751   2.71903   2.71961   2.72360
 Alpha virt. eigenvalues --    2.72648   2.72937   2.73850   2.73910   2.74810
 Alpha virt. eigenvalues --    2.75904   2.77473   2.77998   2.78483   2.78697
 Alpha virt. eigenvalues --    2.80892   2.81810   2.81856   2.82363   2.82457
 Alpha virt. eigenvalues --    2.82592   2.82651   2.83196   2.83224   2.86047
 Alpha virt. eigenvalues --    2.86724   2.87915   2.88834   2.89074   2.89437
 Alpha virt. eigenvalues --    2.90688   2.91296   2.94698   2.96364   2.96721
 Alpha virt. eigenvalues --    2.98414   2.99336   3.00735   3.01807   3.02820
 Alpha virt. eigenvalues --    3.04856   3.05093   3.05321   3.06855   3.08531
 Alpha virt. eigenvalues --    3.09424   3.10332   3.11369   3.13356   3.14296
 Alpha virt. eigenvalues --    3.17701   3.18571   3.18869   3.21438   3.24115
 Alpha virt. eigenvalues --    3.24219   3.24717   3.25250   3.26290   3.26299
 Alpha virt. eigenvalues --    3.27645   3.27663   3.29467   3.30521   3.33187
 Alpha virt. eigenvalues --    3.34725   3.35041   3.35496   3.35985   3.36303
 Alpha virt. eigenvalues --    3.39890   3.40157   3.46051   3.47315   3.50247
 Alpha virt. eigenvalues --    3.51033   3.51079   3.55751   3.59953   3.66011
 Alpha virt. eigenvalues --    3.68803   3.72647   3.72711   3.76043   3.82637
 Alpha virt. eigenvalues --    3.82682   3.86288   4.02549   4.05762   4.05766
 Alpha virt. eigenvalues --    4.08885   4.09237   4.10495   4.12851   4.13924
 Alpha virt. eigenvalues --    4.14019   4.15605   4.16329   4.16961   4.17059
 Alpha virt. eigenvalues --    4.17178   4.17280   4.17714   4.19871   4.20188
 Alpha virt. eigenvalues --    4.20701   4.24100   4.24851   4.28707   4.32116
 Alpha virt. eigenvalues --    4.32191   4.34635   4.34912   4.38375   4.40645
 Alpha virt. eigenvalues --    4.42326   4.43870   4.45487   4.46606   4.47553
 Alpha virt. eigenvalues --    4.48986   4.50714   4.57212   4.58225   4.60735
 Alpha virt. eigenvalues --    4.60801   4.66556   4.72046   4.73469   4.80933
 Alpha virt. eigenvalues --    4.81706   4.86375   4.88231   4.91165   4.91448
          Condensed to atoms (all electrons):
 Mulliken charges:
               1
     1  C    0.331124
     2  C   -0.182709
     3  C   -0.162902
     4  C    0.282988
     5  N   -0.678042
     6  H    0.325181
     7  H    0.164989
     8  H    0.169345
     9  C    0.331141
    10  C   -0.182703
    11  N   -0.678065
    12  C   -0.162897
    13  H    0.164987
    14  C    0.282996
    15  H    0.325183
    16  H    0.169342
    17  C   -0.004577
    18  C   -0.004563
    19  C    0.225304
    20  C   -0.137645
    21  N   -0.635553
    22  C   -0.195323
    23  H    0.152029
    24  C    0.247713
    25  H    0.146904
    26  C    0.225328
    27  C   -0.137647
    28  N   -0.635566
    29  C   -0.195321
    30  H    0.152029
    31  C    0.247722
    32  H    0.146905
    33  N   -0.483828
    34  N   -0.483828
    35  C   -0.012238
    36  C   -0.135309
    37  C   -0.133446
    38  C   -0.106173
    39  C   -0.106444
    40  C    0.046338
    41  C   -0.012257
    42  C   -0.133445
    43  C   -0.135299
    44  C   -0.106443
    45  C   -0.106171
    46  C    0.046336
    47  C    0.079428
    48  H    0.136264
    49  C    0.079437
    50  H    0.136264
    51  C    0.213728
    52  C   -0.142873
    53  C    0.213742
    54  C   -0.147099
    55  H    0.148238
    56  C   -0.142872
    57  C   -0.147096
    58  H    0.145684
    59  H    0.148236
    60  H    0.145684
    61  H    0.170069
    62  H    0.176496
    63  H    0.176229
    64  H    0.169735
    65  H    0.169738
    66  H    0.170071
    67  H    0.176229
    68  H    0.176497
    69  C    0.281438
    70  C    0.281438
    71  N   -0.525100
    72  N   -0.525100
 Sum of Mulliken charges =  -0.00000
 Mulliken charges with hydrogens summed into heavy atoms:
               1
     1  C    0.331124
     2  C   -0.017720
     3  C    0.006444
     4  C    0.282988
     5  N   -0.352860
     9  C    0.331141
    10  C   -0.017716
    11  N   -0.352882
    12  C    0.006446
    14  C    0.282996
    17  C   -0.004577
    18  C   -0.004563
    19  C    0.225304
    20  C    0.014384
    21  N   -0.635553
    22  C   -0.048419
    24  C    0.247713
    26  C    0.225328
    27  C    0.014381
    28  N   -0.635566
    29  C   -0.048416
    31  C    0.247722
    33  N   -0.483828
    34  N   -0.483828
    35  C   -0.012238
    36  C    0.034430
    37  C    0.036626
    38  C    0.070056
    39  C    0.070054
    40  C    0.046338
    41  C   -0.012257
    42  C    0.036624
    43  C    0.034437
    44  C    0.070054
    45  C    0.070058
    46  C    0.046336
    47  C    0.215693
    49  C    0.215700
    51  C    0.213728
    52  C    0.005365
    53  C    0.213742
    54  C   -0.001415
    56  C    0.005364
    57  C   -0.001412
    69  C    0.281438
    70  C    0.281438
    71  N   -0.525100
    72  N   -0.525100
 Electronic spatial extent (au):  <R**2>=          40967.3313
 Charge=             -0.0000 electrons
 Dipole moment (field-independent basis, Debye):
    X=             -0.0000    Y=              1.1528    Z=              0.4558  Tot=              1.2397
 Quadrupole moment (field-independent basis, Debye-Ang):
   XX=           -363.9558   YY=           -248.5021   ZZ=           -268.6325
   XY=              0.0012   XZ=              0.0141   YZ=              6.4996
 Traceless Quadrupole moment (field-independent basis, Debye-Ang):
   XX=            -70.2590   YY=             45.1947   ZZ=             25.0643
   XY=              0.0012   XZ=              0.0141   YZ=              6.4996
 Octapole moment (field-independent basis, Debye-Ang**2):
  XXX=              0.0142  YYY=            322.8265  ZZZ=              5.5527  XYY=              0.0020
  XXY=            908.5889  XXZ=           -104.5534  XZZ=              0.0001  YZZ=            -21.0062
  YYZ=             -4.4871  XYZ=             -0.0227
 Hexadecapole moment (field-independent basis, Debye-Ang**3):
 XXXX=         -57528.4338 YYYY=         -16147.8024 ZZZZ=          -1036.9630 XXXY=              0.2020
 XXXZ=              1.5156 YYYX=             -0.0224 YYYZ=           -133.6604 ZZZX=              0.0023
 ZZZY=             -0.2060 XXYY=         -13207.4275 XXZZ=          -6461.6635 YYZZ=          -3125.5043
 XXYZ=            334.9660 YYXZ=              0.3308 ZZXY=              0.0522
 N-N= 5.058725621321D+03 E-N=-1.469912723152D+04  KE= 1.957293274012D+03
 Unable to Open any file for archive entry.
 1\1\GINC-HAMSI11\SP\RHSEH1PBE TD-FC\6-31G(d,p)\C40H24N8\PINARS\02-Apr-
 2026\0\\# td=(nstates=20) hseh1pbe/6-31g(d,p) scrf=(cpcm,solvent=dichl
 oromethane) geom=connectivity\\Title Card Required\\0,1\C,0,0.715669,-
 2.106604,-0.822786\C,0,1.488692,-3.228233,-1.200893\C,0,2.812811,-2.93
 3177,-0.955769\C,0,2.870773,-1.625177,-0.428868\N,0,1.577381,-1.150302
 ,-0.379559\H,0,1.405989,-0.178865,-0.118096\H,0,1.098359,-4.15495,-1.5
 92791\H,0,3.664416,-3.572009,-1.135726\C,0,-0.715675,-2.106665,-0.8226
 92\C,0,-1.488643,-3.228461,-1.200399\N,0,-1.577423,-1.150266,-0.379731
 \C,0,-2.812767,-2.933419,-0.955278\H,0,-1.098269,-4.155325,-1.591907\C
 ,0,-2.870787,-1.625236,-0.428849\H,0,-1.406102,-0.178705,-0.118661\H,0
 ,-3.664329,-3.5724,-1.134912\C,0,-4.016173,-0.910823,0.000563\C,0,4.01
 6109,-0.910871,0.000855\C,0,4.005409,0.43922,0.353858\C,0,5.089829,1.1
 77421,0.963865\N,0,2.90614,1.245716,0.165252\C,0,4.621524,2.44522,1.13
 4057\H,0,6.055236,0.781316,1.246024\C,0,3.276766,2.446519,0.609091\H,0
 ,5.136437,3.296553,1.560625\C,0,-4.005556,0.439388,0.353092\C,0,-5.090
 087,1.177745,0.962718\N,0,-2.906267,1.245855,0.164443\C,0,-4.621853,2.
 445612,1.13258\H,0,-6.055536,0.781704,1.244822\C,0,-3.276967,2.446757,
 0.607935\H,0,-5.136859,3.297065,1.558795\N,0,-1.351264,3.691198,-0.096
 108\N,0,1.351385,3.691127,-0.095472\C,0,5.291592,-1.660945,0.076354\C,
 0,5.385135,-2.843985,0.823659\C,0,6.428523,-1.18939,-0.595256\C,0,6.58
 2615,-3.537509,0.906071\C,0,7.629284,-1.879283,-0.52745\C,0,7.709825,-
 3.056919,0.226729\C,0,-5.29163,-1.660924,0.07628\C,0,-6.428521,-1.1897
 53,-0.595655\C,0,-5.385196,-2.843585,0.824183\C,0,-7.629274,-1.879628,
 -0.527548\C,0,-6.582663,-3.537098,0.906886\C,0,-7.709847,-3.056873,0.2
 27251\C,0,2.480923,3.647587,0.514753\H,0,2.917653,4.535997,0.990874\C,
 0,-2.481053,3.647785,0.513659\H,0,-2.917914,4.536273,0.989512\C,0,-0.7
 10309,4.905325,-0.269895\C,0,-1.392002,6.115057,-0.4899\C,0,0.710584,4
 .905288,-0.269525\C,0,-0.698736,7.295887,-0.704838\H,0,-2.476664,6.106
 25,-0.539713\C,0,1.392436,6.115002,-0.489164\C,0,0.699329,7.295858,-0.
 704463\H,0,-1.243946,8.214113,-0.900408\H,0,2.477124,6.106163,-0.53841
 5\H,0,1.24468,8.214063,-0.899738\H,0,-6.360504,-0.284548,-1.189442\H,0
 ,-8.501976,-1.515287,-1.058108\H,0,-6.651521,-4.444097,1.497237\H,0,-4
 .515831,-3.208226,1.361009\H,0,4.515762,-3.208911,1.360277\H,0,6.36049
 1,-0.283919,-1.188634\H,0,6.651472,-4.444767,1.496024\H,0,8.502012,-1.
 514682,-1.057787\C,0,-8.945783,-3.770951,0.303791\C,0,8.945759,-3.7710
 31,0.302988\N,0,-9.950298,-4.351435,0.365897\N,0,9.950267,-4.351552,0.
 364876\\Version=ES64L-G16RevC.02\State=1-A\HF=-1974.6147122\RMSD=4.878
 e-09\PG=C01 [X(C40H24N8)]\\@
 The archive entry for this job was punched.


 TO SEE A WORLD IN A GRAIN OF SAND
 AND A HEAVEN IN A WILD FLOWER
 HOLD INFINITY IN THE PALM OF YOUR HAND
 AND ETERNITY IN AN HOUR

                       -- WILLIAM BLAKE
 Job cpu time:       0 days  4 hours 55 minutes 51.3 seconds.
 Elapsed time:       0 days  0 hours  6 minutes 30.2 seconds.
 File lengths (MBytes):  RWF=   7799 Int=      0 D2E=      0 Chk=    506 Scr=      1
 Normal termination of Gaussian 16 at Thu Apr  2 16:03:37 2026.
