SLURM_NODELIST hamsi92
NUMBER OF TASKS 1
NUMBER OF CORES=56
 Entering Gaussian System, Link 0=/arf/sw/apps/gaussian/avx2/g16/g16
 Initial command:
 /arf/sw/apps/gaussian/avx2/g16/l1.exe "/tmp/5473096/Gau-1464699.inp" -scrdir="/tmp/5473096/"
 Entering Link 1 = /arf/sw/apps/gaussian/avx2/g16/l1.exe PID=   1464700.
  
 Copyright (c) 1988-2021, Gaussian, Inc.  All Rights Reserved.
  
 This is part of the Gaussian(R) 16 program.  It is based on
 the Gaussian(R) 09 system (copyright 2009, Gaussian, Inc.),
 the Gaussian(R) 03 system (copyright 2003, Gaussian, Inc.),
 the Gaussian(R) 98 system (copyright 1998, Gaussian, Inc.),
 the Gaussian(R) 94 system (copyright 1995, Gaussian, Inc.),
 the Gaussian 92(TM) system (copyright 1992, Gaussian, Inc.),
 the Gaussian 90(TM) system (copyright 1990, Gaussian, Inc.),
 the Gaussian 88(TM) system (copyright 1988, Gaussian, Inc.),
 the Gaussian 86(TM) system (copyright 1986, Carnegie Mellon
 University), and the Gaussian 82(TM) system (copyright 1983,
 Carnegie Mellon University). Gaussian is a federally registered
 trademark of Gaussian, Inc.
  
 This software contains proprietary and confidential information,
 including trade secrets, belonging to Gaussian, Inc.
  
 This software is provided under written license and may be
 used, copied, transmitted, or stored only in accord with that
 written license.
  
 The following legend is applicable only to US Government
 contracts under FAR:
  
                    RESTRICTED RIGHTS LEGEND
  
 Use, reproduction and disclosure by the US Government is
 subject to restrictions as set forth in subparagraphs (a)
 and (c) of the Commercial Computer Software - Restricted
 Rights clause in FAR 52.227-19.
  
 Gaussian, Inc.
 340 Quinnipiac St., Bldg. 40, Wallingford CT 06492
  
  
 ---------------------------------------------------------------
 Warning -- This program may not be used in any manner that
 competes with the business of Gaussian, Inc. or will provide
 assistance to any competitor of Gaussian, Inc.  The licensee
 of this program is prohibited from giving any competitor of
 Gaussian, Inc. access to this program.  By using this program,
 the user acknowledges that Gaussian, Inc. is engaged in the
 business of creating and licensing software in the field of
 computational chemistry and represents and warrants to the
 licensee that it is not a competitor of Gaussian, Inc. and that
 it will not use this program in any manner prohibited above.
 ---------------------------------------------------------------
  

 Cite this work as:
 Gaussian 16, Revision C.02,
 M. J. Frisch, G. W. Trucks, H. B. Schlegel, G. E. Scuseria, 
 M. A. Robb, J. R. Cheeseman, G. Scalmani, V. Barone, 
 G. A. Petersson, H. Nakatsuji, X. Li, M. Caricato, A. V. Marenich, 
 J. Bloino, B. G. Janesko, R. Gomperts, B. Mennucci, H. P. Hratchian, 
 J. V. Ortiz, A. F. Izmaylov, J. L. Sonnenberg, D. Williams-Young, 
 F. Ding, F. Lipparini, F. Egidi, J. Goings, B. Peng, A. Petrone, 
 T. Henderson, D. Ranasinghe, V. G. Zakrzewski, J. Gao, N. Rega, 
 G. Zheng, W. Liang, M. Hada, M. Ehara, K. Toyota, R. Fukuda, 
 J. Hasegawa, M. Ishida, T. Nakajima, Y. Honda, O. Kitao, H. Nakai, 
 T. Vreven, K. Throssell, J. A. Montgomery, Jr., J. E. Peralta, 
 F. Ogliaro, M. J. Bearpark, J. J. Heyd, E. N. Brothers, K. N. Kudin, 
 V. N. Staroverov, T. A. Keith, R. Kobayashi, J. Normand, 
 K. Raghavachari, A. P. Rendell, J. C. Burant, S. S. Iyengar, 
 J. Tomasi, M. Cossi, J. M. Millam, M. Klene, C. Adamo, R. Cammi, 
 J. W. Ochterski, R. L. Martin, K. Morokuma, O. Farkas, 
 J. B. Foresman, and D. J. Fox, Gaussian, Inc., Wallingford CT, 2019.
 
 ******************************************
 Gaussian 16:  ES64L-G16RevC.02  7-Dec-2021
                 2-Apr-2026 
 ******************************************
 %nprocshared=56
 Will use up to   56 processors via shared memory.
 %mem=76GB
 %chk=B5_td.chk
 ----------------------------------------------------------------------
 # td=(nstates=20) hseh1pbe/6-31g(d,p) scrf=(cpcm,solvent=dichlorometha
 ne) geom=connectivity
 ----------------------------------------------------------------------
 1/38=1,57=2,172=1/1;
 2/12=2,17=6,18=5,40=1/2;
 3/5=1,6=6,7=101,11=9,25=1,30=1,70=2101,72=9,74=-51/1,2,3,8;
 4//1;
 5/5=2,38=5,53=9/2;
 8/6=1,10=2,108=20/1;
 9/41=20,42=1,70=2/14;
 6/7=2,8=2,9=2,10=2/1;
 99/5=1,9=1/99;
 -------------------
 Title Card Required
 -------------------
 Symbolic Z-matrix:
 Charge =  0 Multiplicity = 1
 C                     0.71554  -1.87386  -0.86006 
 C                     1.48836  -2.99328  -1.24575 
 C                     2.81228  -2.70066  -0.99789 
 C                     2.87045  -1.39615  -0.46199 
 N                     1.57748  -0.92089  -0.41003 
 H                     1.40617   0.04822  -0.13989 
 H                     1.09789  -3.91714  -1.64414 
 H                     3.66347  -3.33893  -1.18186 
 C                    -0.7155   -1.87384  -0.86015 
 C                    -1.48831  -2.9932   -1.246 
 N                    -1.57745  -0.92091  -0.41005 
 C                    -2.81224  -2.7006   -0.99818 
 H                    -1.09784  -3.91697  -1.64461 
 C                    -2.87041  -1.39616  -0.46211 
 H                    -1.40616   0.04818  -0.13979 
 H                    -3.66343  -3.33883  -1.1823 
 C                    -4.01573  -0.68531  -0.02754 
 C                     4.01575  -0.68526  -0.02748 
 C                     4.00684   0.66133   0.33772 
 C                     5.09403   1.39405   0.95012 
 N                     2.90648   1.46903   0.16173 
 C                     4.62601   2.65966   1.13474 
 H                     6.06107   0.99602   1.22385 
 C                     3.27871   2.66551   0.61545 
 H                     5.14252   3.50709   1.56704 
 C                    -4.00681   0.66127   0.33772 
 C                    -5.09402   1.39396   0.9501 
 N                    -2.90646   1.46898   0.16175 
 C                    -4.62602   2.65957   1.13475 
 H                    -6.06109   0.99592   1.22377 
 C                    -3.27869   2.66543   0.61556 
 H                    -5.14257   3.50699   1.56701 
 N                    -1.35136   3.91649  -0.07092 
 N                     1.35133   3.91652  -0.07099 
 C                     5.29113  -1.43664   0.04132 
 C                     5.38414  -2.62222   0.7859 
 C                     6.42589  -0.96263  -0.6336 
 C                     6.58118  -3.31779   0.86336 
 C                     7.62711  -1.65311  -0.57149 
 C                     7.68483  -2.82108   0.1795 
 C                    -5.2911   -1.43668   0.04121 
 C                    -6.42585  -0.9627   -0.63372 
 C                    -5.38415  -2.62218   0.78594 
 C                    -7.62711  -1.65314  -0.57149 
 C                    -6.58118  -3.31773   0.86345 
 C                    -7.68483  -2.82107   0.17955 
 C                     2.48277   3.86734   0.53549 
 H                     2.92101   4.75105   1.01875 
 C                    -2.48279   3.86729   0.53556 
 H                    -2.92108   4.75099   1.01881 
 C                    -0.71054   5.13218  -0.23211 
 C                    -1.39235   6.3443   -0.43909 
 C                     0.71048   5.1322   -0.23215 
 C                    -0.69917   7.52718  -0.6416 
 H                    -2.477     6.33617  -0.48895 
 C                     1.39225   6.34433  -0.43916 
 C                     0.69903   7.5272   -0.64164 
 H                    -1.24439   8.44743  -0.82734 
 H                     2.47689   6.33623  -0.48908 
 H                     1.24421   8.44746  -0.8274 
 H                    -6.35613  -0.05584  -1.2244 
 H                    -8.5084   -1.30486  -1.09564 
 H                    -6.67134  -4.22698   1.44466 
 H                    -4.51583  -2.98713   1.32382 
 H                     4.51581  -2.98726   1.32371 
 H                     6.35613  -0.05574  -1.22424 
 H                     6.6713   -4.22704   1.44457 
 H                     8.50841  -1.30485  -1.09563 
 N                    -8.94576  -3.55055   0.25254 
 N                     8.94578  -3.55051   0.25249 
 O                     9.90575  -3.09557  -0.35273 
 O                     8.9751   -4.57766   0.91507 
 O                    -8.97498  -4.57786   0.91486 
 O                    -9.90582  -3.09548  -0.35244 
 
 Stoichiometry    C38H24N8O4
 Framework group  C1[X(C38H24N8O4)]
 Deg. of freedom   216
 Full point group                 C1      NOp   1
 Largest Abelian subgroup         C1      NOp   1
 Largest concise Abelian subgroup C1      NOp   1
                         Standard orientation:                         
 ---------------------------------------------------------------------
 Center     Atomic      Atomic             Coordinates (Angstroms)
 Number     Number       Type             X           Y           Z
 ---------------------------------------------------------------------
      1          6           0        0.715540   -1.873859   -0.860055
      2          6           0        1.488357   -2.993275   -1.245754
      3          6           0        2.812278   -2.700655   -0.997889
      4          6           0        2.870446   -1.396146   -0.461992
      5          7           0        1.577482   -0.920888   -0.410031
      6          1           0        1.406173    0.048221   -0.139889
      7          1           0        1.097892   -3.917143   -1.644142
      8          1           0        3.663469   -3.338928   -1.181862
      9          6           0       -0.715498   -1.873835   -0.860152
     10          6           0       -1.488306   -2.993203   -1.246004
     11          7           0       -1.577451   -0.920908   -0.410054
     12          6           0       -2.812239   -2.700598   -0.998176
     13          1           0       -1.097838   -3.916974   -1.644614
     14          6           0       -2.870414   -1.396160   -0.462105
     15          1           0       -1.406161    0.048177   -0.139794
     16          1           0       -3.663429   -3.338829   -1.182300
     17          6           0       -4.015726   -0.685307   -0.027537
     18          6           0        4.015753   -0.685255   -0.027480
     19          6           0        4.006839    0.661332    0.337718
     20          6           0        5.094028    1.394051    0.950119
     21          7           0        2.906479    1.469026    0.161728
     22          6           0        4.626008    2.659656    1.134737
     23          1           0        6.061075    0.996019    1.223853
     24          6           0        3.278713    2.665507    0.615451
     25          1           0        5.142520    3.507087    1.567042
     26          6           0       -4.006808    0.661270    0.337722
     27          6           0       -5.094021    1.393958    0.950099
     28          7           0       -2.906462    1.468980    0.161747
     29          6           0       -4.626018    2.659565    1.134751
     30          1           0       -6.061085    0.995923    1.223770
     31          6           0       -3.278688    2.665431    0.615561
     32          1           0       -5.142573    3.506992    1.567014
     33          7           0       -1.351359    3.916493   -0.070916
     34          7           0        1.351333    3.916523   -0.070985
     35          6           0        5.291130   -1.436635    0.041321
     36          6           0        5.384142   -2.622224    0.785903
     37          6           0        6.425886   -0.962628   -0.633595
     38          6           0        6.581181   -3.317794    0.863363
     39          6           0        7.627108   -1.653106   -0.571487
     40          6           0        7.684830   -2.821082    0.179502
     41          6           0       -5.291100   -1.436676    0.041213
     42          6           0       -6.425853   -0.962701   -0.633715
     43          6           0       -5.384153   -2.622183    0.785939
     44          6           0       -7.627110   -1.653140   -0.571490
     45          6           0       -6.581181   -3.317733    0.863449
     46          6           0       -7.684834   -2.821066    0.179552
     47          6           0        2.482765    3.867343    0.535490
     48          1           0        2.921011    4.751047    1.018753
     49          6           0       -2.482792    3.867290    0.535563
     50          1           0       -2.921076    4.750986    1.018807
     51          6           0       -0.710543    5.132181   -0.232108
     52          6           0       -1.392354    6.344299   -0.439086
     53          6           0        0.710480    5.132196   -0.232149
     54          6           0       -0.699172    7.527183   -0.641604
     55          1           0       -2.476996    6.336168   -0.488953
     56          6           0        1.392250    6.344333   -0.439164
     57          6           0        0.699027    7.527201   -0.641643
     58          1           0       -1.244389    8.447431   -0.827342
     59          1           0        2.476889    6.336234   -0.489084
     60          1           0        1.244212    8.447463   -0.827404
     61          1           0       -6.356131   -0.055838   -1.224402
     62          1           0       -8.508400   -1.304857   -1.095637
     63          1           0       -6.671342   -4.226975    1.444656
     64          1           0       -4.515830   -2.987133    1.323823
     65          1           0        4.515810   -2.987263    1.323714
     66          1           0        6.356129   -0.055735   -1.224239
     67          1           0        6.671300   -4.227042    1.444572
     68          1           0        8.508413   -1.304849   -1.095628
     69          7           0       -8.945764   -3.550547    0.252537
     70          7           0        8.945783   -3.550514    0.252493
     71          8           0        9.905749   -3.095570   -0.352725
     72          8           0        8.975097   -4.577661    0.915067
     73          8           0       -8.974980   -4.577862    0.914858
     74          8           0       -9.905821   -3.095477   -0.352443
 ---------------------------------------------------------------------
 Rotational constants (GHZ):           0.0669449           0.0277536           0.0200776
 Standard basis: 6-31G(d,p) (6D, 7F)
 There are   870 symmetry adapted cartesian basis functions of A   symmetry.
 There are   870 symmetry adapted basis functions of A   symmetry.
   870 basis functions,  1568 primitive gaussians,   870 cartesian basis functions
   170 alpha electrons      170 beta electrons
       nuclear repulsion energy      5545.4915757606 Hartrees.
 NAtoms=   74 NActive=   74 NUniq=   74 SFac= 1.00D+00 NAtFMM=   60 NAOKFM=T Big=T
 Integral buffers will be    131072 words long.
 Regular integral format.
 Two-electron integral symmetry is turned on.
 ------------------------------------------------------------------------------
 Polarizable Continuum Model (PCM)
 =================================
 Model                : C-PCM.
 Atomic radii         : UFF (Universal Force Field).
 Polarization charges : Total charges.
 Charge compensation  : None.
 Solution method      : On-the-fly selection.
 Cavity type          : Scaled VdW (van der Waals Surface) (Alpha=1.100).
 Cavity algorithm     : GePol (No added spheres)
                        Default sphere list used, NSphG=   74.
                        Lebedev-Laikov grids with approx.  5.0 points / Ang**2.
                        Smoothing algorithm: York/Karplus (Gamma=1.0000).
                        Polarization charges: spherical gaussians, with
                                              point-specific exponents (IZeta= 3).
                        Self-potential: point-specific (ISelfS= 7).
                        Self-field    : sphere-specific E.n sum rule (ISelfD= 2).
 Solvent              : Dichloromethane, Eps=   8.930000 Eps(inf)=   2.028346
 ------------------------------------------------------------------------------
 One-electron integrals computed using PRISM.
 NBasis=   870 RedAO= T EigKep=  3.23D-04  NBF=   870
 NBsUse=   870 1.00D-06 EigRej= -1.00D+00 NBFU=   870
 ExpMin= 1.61D-01 ExpMax= 5.48D+03 ExpMxC= 8.25D+02 IAcc=3 IRadAn=         5 AccDes= 0.00D+00
 Harris functional with IExCor= 1009 and IRadAn=       5 diagonalized for initial guess.
 HarFok:  IExCor= 1009 AccDes= 0.00D+00 IRadAn=         5 IDoV= 1 UseB2=F ITyADJ=14
 ICtDFT=  3500011 ScaDFX=  1.000000  1.000000  1.000000  1.000000
 FoFCou: FMM=F IPFlag=           0 FMFlag=      100000 FMFlg1=        2001
         NFxFlg=           0 DoJE=T BraDBF=F KetDBF=T FulRan=T
         wScrn=  0.000000 ICntrl=       500 IOpCl=  0 I1Cent=   200000004 NGrid=           0
         NMat0=    1 NMatS0=      1 NMatT0=    0 NMatD0=    1 NMtDS0=    0 NMtDT0=    0
 Petite list used in FoFCou.
 Requested convergence on RMS density matrix=1.00D-08 within 128 cycles.
 Requested convergence on MAX density matrix=1.00D-06.
 Requested convergence on             energy=1.00D-06.
 No special actions if energy rises.
 Inv3:  Mode=1 IEnd=    92207808.
 Iteration    1 A*A^-1 deviation from unit magnitude is 4.22D-15 for    225.
 Iteration    1 A*A^-1 deviation from orthogonality  is 2.25D-15 for   5123   4930.
 Iteration    1 A^-1*A deviation from unit magnitude is 4.33D-15 for    230.
 Iteration    1 A^-1*A deviation from orthogonality  is 2.65D-15 for   4874   4591.
 Error on total polarization charges =  0.01082
 SCF Done:  E(RHSEH1PBE) =  -2198.95419560     A.U. after   14 cycles
            NFock= 14  Conv=0.45D-08     -V/T= 2.0086
 DoSCS=F DFT=T ScalE2(SS,OS)=  1.000000  1.000000
 ExpMin= 1.61D-01 ExpMax= 5.48D+03 ExpMxC= 8.25D+02 IAcc=3 IRadAn=         5 AccDes= 0.00D+00
 HarFok:  IExCor=  205 AccDes= 0.00D+00 IRadAn=         5 IDoV=-2 UseB2=F ITyADJ=14
 ICtDFT= 12500011 ScaDFX=  1.000000  1.000000  1.000000  1.000000
 GSVD:  LWork=       -2900 too small for GESVD, short by       13250 words or       13250 for optimal perf.
 Range of M.O.s used for correlation:    51   870
 NBasis=   870 NAE=   170 NBE=   170 NFC=    50 NFV=     0
 NROrb=    820 NOA=   120 NOB=   120 NVA=   700 NVB=   700

 **** Warning!!: The smallest alpha delta epsilon is  0.61789712D-01

 NEqPCM:  Using non-equilibrium solvation (IEInf=1, Eps=   8.9300, EpsInf=   2.0283)
 Inv3:  Mode=1 IEnd=    92207808.
 Iteration    1 A*A^-1 deviation from unit magnitude is 4.22D-15 for    225.
 Iteration    1 A*A^-1 deviation from orthogonality  is 2.25D-15 for   5123   4930.
 Iteration    1 A^-1*A deviation from unit magnitude is 4.33D-15 for    230.
 Iteration    1 A^-1*A deviation from orthogonality  is 2.65D-15 for   4874   4591.
 Orbital symmetries:
       Occupied  (A) (A) (A) (A) (A) (A) (A) (A) (A) (A) (A) (A)
                 (A) (A) (A) (A) (A) (A) (A) (A) (A) (A) (A) (A)
                 (A) (A) (A) (A) (A) (A) (A) (A) (A) (A) (A) (A)
                 (A) (A) (A) (A) (A) (A) (A) (A) (A) (A) (A) (A)
                 (A) (A) (A) (A) (A) (A) (A) (A) (A) (A) (A) (A)
                 (A) (A) (A) (A) (A) (A) (A) (A) (A) (A) (A) (A)
                 (A) (A) (A) (A) (A) (A) (A) (A) (A) (A) (A) (A)
                 (A) (A) (A) (A) (A) (A) (A) (A) (A) (A) (A) (A)
                 (A) (A) (A) (A) (A) (A) (A) (A) (A) (A) (A) (A)
                 (A) (A) (A) (A) (A) (A) (A) (A) (A) (A) (A) (A)
                 (A) (A) (A) (A) (A) (A) (A) (A) (A) (A) (A) (A)
                 (A) (A) (A) (A) (A) (A) (A) (A) (A) (A) (A) (A)
                 (A) (A) (A) (A) (A) (A) (A) (A) (A) (A) (A) (A)
                 (A) (A) (A) (A) (A) (A) (A) (A) (A) (A) (A) (A)
                 (A) (A)
       Virtual   (A) (A) (A) (A) (A) (A) (A) (A) (A) (A) (A) (A)
                 (A) (A) (A) (A) (A) (A) (A) (A) (A) (A) (A) (A)
                 (A) (A) (A) (A) (A) (A) (A) (A) (A) (A) (A) (A)
                 (A) (A) (A) (A) (A) (A) (A) (A) (A) (A) (A) (A)
                 (A) (A) (A) (A) (A) (A) (A) (A) (A) (A) (A) (A)
                 (A) (A) (A) (A) (A) (A) (A) (A) (A) (A) (A) (A)
                 (A) (A) (A) (A) (A) (A) (A) (A) (A) (A) (A) (A)
                 (A) (A) (A) (A) (A) (A) (A) (A) (A) (A) (A) (A)
                 (A) (A) (A) (A) (A) (A) (A) (A) (A) (A) (A) (A)
                 (A) (A) (A) (A) (A) (A) (A) (A) (A) (A) (A) (A)
                 (A) (A) (A) (A) (A) (A) (A) (A) (A) (A) (A) (A)
                 (A) (A) (A) (A) (A) (A) (A) (A) (A) (A) (A) (A)
                 (A) (A) (A) (A) (A) (A) (A) (A) (A) (A) (A) (A)
                 (A) (A) (A) (A) (A) (A) (A) (A) (A) (A) (A) (A)
                 (A) (A) (A) (A) (A) (A) (A) (A) (A) (A) (A) (A)
                 (A) (A) (A) (A) (A) (A) (A) (A) (A) (A) (A) (A)
                 (A) (A) (A) (A) (A) (A) (A) (A) (A) (A) (A) (A)
                 (A) (A) (A) (A) (A) (A) (A) (A) (A) (A) (A) (A)
                 (A) (A) (A) (A) (A) (A) (A) (A) (A) (A) (A) (A)
                 (A) (A) (A) (A) (A) (A) (A) (A) (A) (A) (A) (A)
                 (A) (A) (A) (A) (A) (A) (A) (A) (A) (A) (A) (A)
                 (A) (A) (A) (A) (A) (A) (A) (A) (A) (A) (A) (A)
                 (A) (A) (A) (A) (A) (A) (A) (A) (A) (A) (A) (A)
                 (A) (A) (A) (A) (A) (A) (A) (A) (A) (A) (A) (A)
                 (A) (A) (A) (A) (A) (A) (A) (A) (A) (A) (A) (A)
                 (A) (A) (A) (A) (A) (A) (A) (A) (A) (A) (A) (A)
                 (A) (A) (A) (A) (A) (A) (A) (A) (A) (A) (A) (A)
                 (A) (A) (A) (A) (A) (A) (A) (A) (A) (A) (A) (A)
                 (A) (A) (A) (A) (A) (A) (A) (A) (A) (A) (A) (A)
                 (A) (A) (A) (A) (A) (A) (A) (A) (A) (A) (A) (A)
                 (A) (A) (A) (A) (A) (A) (A) (A) (A) (A) (A) (A)
                 (A) (A) (A) (A) (A) (A) (A) (A) (A) (A) (A) (A)
                 (A) (A) (A) (A) (A) (A) (A) (A) (A) (A) (A) (A)
                 (A) (A) (A) (A) (A) (A) (A) (A) (A) (A) (A) (A)
                 (A) (A) (A) (A) (A) (A) (A) (A) (A) (A) (A) (A)
                 (A) (A) (A) (A) (A) (A) (A) (A) (A) (A) (A) (A)
                 (A) (A) (A) (A) (A) (A) (A) (A) (A) (A) (A) (A)
                 (A) (A) (A) (A) (A) (A) (A) (A) (A) (A) (A) (A)
                 (A) (A) (A) (A) (A) (A) (A) (A) (A) (A) (A) (A)
                 (A) (A) (A) (A) (A) (A) (A) (A) (A) (A) (A) (A)
                 (A) (A) (A) (A) (A) (A) (A) (A) (A) (A) (A) (A)
                 (A) (A) (A) (A) (A) (A) (A) (A) (A) (A) (A) (A)
                 (A) (A) (A) (A) (A) (A) (A) (A) (A) (A) (A) (A)
                 (A) (A) (A) (A) (A) (A) (A) (A) (A) (A) (A) (A)
                 (A) (A) (A) (A) (A) (A) (A) (A) (A) (A) (A) (A)
                 (A) (A) (A) (A) (A) (A) (A) (A) (A) (A) (A) (A)
                 (A) (A) (A) (A) (A) (A) (A) (A) (A) (A) (A) (A)
                 (A) (A) (A) (A) (A) (A) (A) (A) (A) (A) (A) (A)
                 (A) (A) (A) (A) (A) (A) (A) (A) (A) (A) (A) (A)
                 (A) (A) (A) (A) (A) (A) (A) (A) (A) (A) (A) (A)
                 (A) (A) (A) (A) (A) (A) (A) (A) (A) (A) (A) (A)
                 (A) (A) (A) (A) (A) (A) (A) (A) (A) (A) (A) (A)
                 (A) (A) (A) (A) (A) (A) (A) (A) (A) (A) (A) (A)
                 (A) (A) (A) (A) (A) (A) (A) (A) (A) (A) (A) (A)
                 (A) (A) (A) (A) (A) (A) (A) (A) (A) (A) (A) (A)
                 (A) (A) (A) (A) (A) (A) (A) (A) (A) (A) (A) (A)
                 (A) (A) (A) (A) (A) (A) (A) (A) (A) (A) (A) (A)
                 (A) (A) (A) (A) (A) (A) (A) (A) (A) (A) (A) (A)
                 (A) (A) (A) (A)
    80 initial guesses have been made.
 Convergence on wavefunction:    0.001000000000000
 Iteration     1 Dimension    80 NMult     0 NNew     80
 CISAX will form    80 AO SS matrices at one time.
 New state      4 was old state      5
 New state      5 was old state      4
 New state      6 was old state      7
 New state      7 was old state      8
 New state      8 was old state      9
 New state      9 was old state     11
 New state     10 was old state     12
 New state     11 was old state     10
 New state     12 was old state     13
 New state     13 was old state     15
 New state     14 was old state      6
 New state     15 was old state     14
 New state     18 was old state     33
 New state     19 was old state     35
 New state     20 was old state     18
 Iteration     2 Dimension   120 NMult    80 NNew     40
 New state     12 was old state     14
 New state     13 was old state     12
 New state     14 was old state     13
 Iteration     3 Dimension   160 NMult   120 NNew     40
 Iteration     4 Dimension   200 NMult   160 NNew     40
 Iteration     5 Dimension   232 NMult   200 NNew     32
 Iteration     6 Dimension   234 NMult   232 NNew      2
 ***********************************************************************
 Excited states from <AA,BB:AA,BB> singles matrix:
 ***********************************************************************
 
 Ground to excited state transition densities written to RWF  633
 Ground to excited state transition electric dipole moments (Au):
       state          X           Y           Z        Dip. S.      Osc.
         1        -2.5763      0.0001      0.0000      6.6374      0.2889
         2        -0.0001     -1.1443      0.2000      1.3493      0.0655
         3         0.0001      2.4400      0.2330      6.0079      0.3339
         4        -1.5079     -0.0002     -0.0000      2.2738      0.1349
         5         2.4798     -0.0003     -0.0000      6.1495      0.3750
         6         0.0002      2.1650      0.2167      4.7340      0.3154
         7         0.1260      0.0005      0.0001      0.0159      0.0011
         8         0.0003      0.2601      0.0119      0.0678      0.0047
         9        -0.0063     -0.0001     -0.0000      0.0000      0.0000
        10        -0.0002     -1.6816     -0.1201      2.8422      0.2032
        11        -1.2568     -0.0001     -0.0001      1.5795      0.1166
        12         0.0002     -3.3951     -0.6419     11.9385      0.9095
        13        -0.0002      0.2952     -0.1714      0.1165      0.0093
        14        -2.5179     -0.0001      0.0000      6.3398      0.5135
        15        -1.1693      0.0000     -0.0000      1.3673      0.1127
        16        -0.0001      0.4661      0.0862      0.2247      0.0188
        17         0.3526     -0.0000      0.0000      0.1243      0.0106
        18         0.2263      0.0004      0.0002      0.0512      0.0045
        19        -0.0001      0.4164      0.1664      0.2011      0.0178
        20        -0.1808     -0.0000     -0.0000      0.0327      0.0029
 Ground to excited state transition velocity dipole moments (Au):
       state          X           Y           Z        Dip. S.      Osc.
         1         0.1638     -0.0000     -0.0000      0.0268      0.2740
         2         0.0000      0.0806     -0.0170      0.0068      0.0621
         3        -0.0000     -0.1973     -0.0127      0.0391      0.3126
         4         0.1281      0.0000      0.0000      0.0164      0.1229
         5        -0.2183      0.0000      0.0000      0.0476      0.3472
         6        -0.0000     -0.2093     -0.0193      0.0442      0.2947
         7        -0.0070     -0.0000     -0.0000      0.0000      0.0003
         8        -0.0000     -0.0264      0.0008      0.0007      0.0045
         9        -0.0042      0.0000      0.0000      0.0000      0.0001
        10         0.0000      0.1754      0.0091      0.0309      0.1918
        11         0.1343      0.0000      0.0000      0.0180      0.1086
        12        -0.0000      0.3776      0.0713      0.1477      0.8614
        13         0.0000     -0.0343      0.0242      0.0018      0.0099
        14         0.2958      0.0000     -0.0000      0.0875      0.4800
        15         0.1367     -0.0000      0.0000      0.0187      0.1007
        16         0.0000     -0.0553     -0.0152      0.0033      0.0174
        17        -0.0424      0.0000     -0.0000      0.0018      0.0093
        18        -0.0331     -0.0000     -0.0000      0.0011      0.0055
        19         0.0000     -0.0535     -0.0278      0.0036      0.0182
        20         0.0211      0.0000      0.0000      0.0004      0.0022
 Ground to excited state transition magnetic dipole moments (Au):
       state          X           Y           Z
         1        -0.0000     -0.7616      2.7410
         2        -0.0368     -0.0000      0.0002
         3         0.1493      0.0000     -0.0000
         4        -0.0000      0.1274     -1.7056
         5         0.0000      0.4372     -0.1524
         6         0.1573      0.0001      0.0000
         7         0.0000      0.0586     -0.6709
         8        -0.0561      0.0000      0.0000
         9         0.0000      0.2897     -0.5070
        10        -0.3886     -0.0000     -0.0001
        11        -0.0000     -0.1531     -0.8735
        12        -0.3560      0.0000      0.0002
        13        -0.0824     -0.0000     -0.0001
        14        -0.0000     -0.2144     -1.3062
        15        -0.0000      0.0319     -0.9500
        16         0.0765     -0.0000     -0.0001
        17        -0.0000      0.0553      0.3237
        18         0.0001      0.2532      0.3068
        19         0.1805     -0.0002     -0.0002
        20         0.0000      0.0342      0.1788
 Ground to excited state transition velocity quadrupole moments (Au):
       state          XX          YY          ZZ          XY          XZ          YZ
         1         0.0001     -0.0001     -0.0000      0.3698      0.2097      0.0000
         2        -1.0272      0.8523      0.0122      0.0001      0.0000     -0.0699
         3         0.4256     -1.1517      0.0224     -0.0000     -0.0000      0.1697
         4        -0.0000      0.0001     -0.0000     -0.5765     -0.0262     -0.0000
         5        -0.0000      0.0001     -0.0000      0.4134     -0.1556     -0.0000
         6         0.6506     -1.2030      0.0381     -0.0000     -0.0000      0.2338
         7         0.0002     -0.0002      0.0000      0.2083      0.0027      0.0000
         8        -1.2463     -0.8780      0.0166     -0.0000     -0.0000      0.2288
         9        -0.0002     -0.0000     -0.0000      0.2463      0.0855      0.0000
        10        -0.4703      1.1937     -0.0249      0.0001      0.0000     -0.1768
        11        -0.0002     -0.0001     -0.0000      0.5543      0.0018      0.0000
        12        -0.8637      1.2885     -0.0339      0.0001      0.0000     -0.0918
        13         0.7487     -0.6622     -0.0324     -0.0000      0.0000      0.0855
        14        -0.0000      0.0001      0.0000     -1.1154      0.0912     -0.0000
        15         0.0003     -0.0000     -0.0000     -1.1835     -0.0204     -0.0000
        16         0.5093     -0.1056     -0.0029     -0.0001     -0.0000     -0.1132
        17        -0.0002     -0.0000      0.0000      0.8058      0.0758      0.0000
        18         0.0004      0.0001      0.0000      0.4527      0.1474     -0.0000
        19         0.3677      0.0430      0.0053     -0.0002     -0.0001     -0.0433
        20         0.0004      0.0001      0.0000     -0.3180     -0.0568     -0.0000
 <0|del|b> * <b|rxdel|0> + <0|del|b> * <b|delr+rdel|0>
 Rotatory Strengths (R) in cgs (10**-40 erg-esu-cm/Gauss)
       state          XX          YY          ZZ    R(velocity)    E-M Angle
         1         0.0473     -0.0109      0.0129      0.0165       90.00
         2        -0.0436     -0.0141     -0.0136     -0.0238       90.00
         3        -0.0000     -0.0103      0.0005     -0.0033       90.00
         4        -0.0137     -0.0424      0.0008     -0.0184       90.00
         5         0.0584      0.0104      0.0021      0.0236       90.00
         6        -0.0782     -0.0279     -0.0132     -0.0398       90.00
         7        -0.0034      0.0084     -0.0099     -0.0016       90.00
         8        -0.0068     -0.0161      0.0268      0.0013       90.00
         9         0.0039     -0.0092      0.0129      0.0025       90.00
        10        -0.0061     -0.0399     -0.0109     -0.0190       90.00
        11        -0.0128     -0.0325     -0.0318     -0.0257       90.00
        12         0.0570      0.0680      0.0580      0.0610       90.00
        13         0.0018     -0.0045     -0.0086     -0.0038       90.00
        14        -0.0051     -0.0376     -0.0363     -0.0263       90.00
        15        -0.0379     -0.0079      0.0037     -0.0140       90.00
        16         0.0042     -0.0028      0.0144      0.0053       90.00
        17        -0.0009      0.0001      0.0023      0.0005       90.00
        18        -0.0698      0.0012     -0.0668     -0.0451       90.00
        19         0.0429      0.0038      0.0444      0.0304       90.00
        20        -0.0002      0.0039      0.0041      0.0026       90.00
 1/2[<0|r|b>*<b|rxdel|0> + (<0|rxdel|b>*<b|r|0>)*]
 Rotatory Strengths (R) in cgs (10**-40 erg-esu-cm/Gauss)
       state          XX          YY          ZZ     R(length)
         1        -0.0238      0.0795     -0.0229      0.0109
         2        -0.0013     -0.0353     -0.0307     -0.0224
         3        -0.0104     -0.0008      0.0013     -0.0033
         4        -0.0382      0.0170     -0.0301     -0.0171
         5        -0.0073      0.0844     -0.0039      0.0244
         6        -0.0200     -0.1014     -0.0007     -0.0407
         7        -0.0037     -0.0189      0.0237      0.0004
         8         0.0116     -0.0072     -0.0004      0.0013
         9         0.0000      0.0210     -0.0095      0.0038
        10        -0.0499     -0.0028     -0.0074     -0.0200
        11        -0.0308     -0.0135     -0.0359     -0.0268
        12         0.0564      0.0391      0.0905      0.0620
        13        -0.0092      0.0074     -0.0088     -0.0035
        14        -0.0734     -0.0120      0.0094     -0.0253
        15        -0.0087     -0.0009     -0.0271     -0.0123
        16         0.0074      0.0012      0.0051      0.0046
        17         0.0007      0.0016     -0.0018      0.0002
        18        -0.0221     -0.0664     -0.0336     -0.0407
        19         0.0098      0.0491      0.0254      0.0281
        20         0.0056      0.0005      0.0026      0.0029
  1/2[<0|del|b>*<b|r|0> + (<0|r|b>*<b|del|0>)*] (Au)
       state          X           Y           Z        Dip. S.   Osc.(frdel)
         1        -0.4221     -0.0000     -0.0000      0.4221      0.2814
         2        -0.0000     -0.0922     -0.0034      0.0956      0.0637
         3        -0.0000     -0.4815     -0.0030      0.4844      0.3230
         4        -0.1931     -0.0000     -0.0000      0.1931      0.1288
         5        -0.5413     -0.0000     -0.0000      0.5413      0.3608
         6        -0.0000     -0.4531     -0.0042      0.4573      0.3049
         7        -0.0009     -0.0000     -0.0000      0.0009      0.0006
         8        -0.0000     -0.0069      0.0000      0.0069      0.0046
         9         0.0000     -0.0000     -0.0000     -0.0000     -0.0000
        10        -0.0000     -0.2950     -0.0011      0.2961      0.1974
        11        -0.1688     -0.0000     -0.0000      0.1688      0.1125
        12        -0.0000     -1.2819     -0.0458      1.3277      0.8851
        13        -0.0000     -0.0101     -0.0041      0.0143      0.0095
        14        -0.7448     -0.0000     -0.0000      0.7448      0.4965
        15        -0.1598     -0.0000     -0.0000      0.1598      0.1065
        16        -0.0000     -0.0258     -0.0013      0.0271      0.0181
        17        -0.0149     -0.0000     -0.0000      0.0149      0.0100
        18        -0.0075     -0.0000     -0.0000      0.0075      0.0050
        19        -0.0000     -0.0223     -0.0046      0.0269      0.0179
        20        -0.0038     -0.0000     -0.0000      0.0038      0.0025

 Excitation energies and oscillator strengths:
 
 Excited State   1:      Singlet-A      1.7769 eV  697.76 nm  f=0.2889  <S**2>=0.000
     169 ->172        -0.12715
     170 ->171         0.68976
 This state for optimization and/or second-order correction.
 Total Energy, E(TD-HF/TD-DFT) =  -2198.88889649    
 Copying the excited state density for this state as the 1-particle RhoCI density.
 
 Excited State   2:      Singlet-A      1.9826 eV  625.35 nm  f=0.0655  <S**2>=0.000
     169 ->171         0.57809
     170 ->172         0.39736
 
 Excited State   3:      Singlet-A      2.2688 eV  546.48 nm  f=0.3339  <S**2>=0.000
     167 ->171         0.11107
     169 ->171        -0.34270
     170 ->172         0.54762
     170 ->174        -0.25868
 
 Excited State   4:      Singlet-A      2.4217 eV  511.96 nm  f=0.1349  <S**2>=0.000
     169 ->172         0.48825
     170 ->173         0.49995
 
 Excited State   5:      Singlet-A      2.4890 eV  498.13 nm  f=0.3750  <S**2>=0.000
     169 ->172        -0.48653
     170 ->173         0.49114
 
 Excited State   6:      Singlet-A      2.7197 eV  455.88 nm  f=0.3154  <S**2>=0.000
     167 ->171         0.29562
     169 ->171        -0.13296
     169 ->173        -0.22367
     170 ->172         0.10412
     170 ->174         0.57618
 
 Excited State   7:      Singlet-A      2.7433 eV  451.96 nm  f=0.0011  <S**2>=0.000
     168 ->171         0.69042
 
 Excited State   8:      Singlet-A      2.8338 eV  437.52 nm  f=0.0047  <S**2>=0.000
     167 ->171         0.30549
     169 ->173         0.62746
 
 Excited State   9:      Singlet-A      2.8750 eV  431.25 nm  f=0.0000  <S**2>=0.000
     166 ->171         0.65942
     169 ->174         0.19810
 
 Excited State  10:      Singlet-A      2.9189 eV  424.77 nm  f=0.2032  <S**2>=0.000
     165 ->171         0.57406
     167 ->171         0.29892
     169 ->173        -0.15486
     170 ->174        -0.16141
 
 Excited State  11:      Singlet-A      3.0134 eV  411.45 nm  f=0.1166  <S**2>=0.000
     166 ->171        -0.21544
     169 ->174         0.65045
 
 Excited State  12:      Singlet-A      3.1094 eV  398.73 nm  f=0.9095  <S**2>=0.000
     165 ->171        -0.38234
     167 ->171         0.45017
     169 ->171         0.15651
     169 ->173        -0.16174
     170 ->172        -0.15146
     170 ->174        -0.24711
 
 Excited State  13:      Singlet-A      3.2418 eV  382.46 nm  f=0.0093  <S**2>=0.000
     168 ->172         0.67884
 
 Excited State  14:      Singlet-A      3.3063 eV  375.00 nm  f=0.5135  <S**2>=0.000
     164 ->171         0.66998
     169 ->174         0.10508
 
 Excited State  15:      Singlet-A      3.3631 eV  368.66 nm  f=0.1127  <S**2>=0.000
     167 ->172         0.67780
 
 Excited State  16:      Singlet-A      3.4230 eV  362.21 nm  f=0.0188  <S**2>=0.000
     166 ->172         0.67350
     168 ->172         0.11094
 
 Excited State  17:      Singlet-A      3.4921 eV  355.04 nm  f=0.0106  <S**2>=0.000
     165 ->172         0.67558
 
 Excited State  18:      Singlet-A      3.5917 eV  345.20 nm  f=0.0045  <S**2>=0.000
     157 ->171         0.40402
     159 ->171         0.28416
     162 ->171        -0.19317
     163 ->171         0.39122
 
 Excited State  19:      Singlet-A      3.6179 eV  342.70 nm  f=0.0178  <S**2>=0.000
     156 ->171         0.34893
     157 ->172         0.14289
     158 ->171         0.18260
     160 ->171         0.37157
     161 ->171         0.33435
     168 ->174         0.10186
 
 Excited State  20:      Singlet-A      3.6800 eV  336.92 nm  f=0.0029  <S**2>=0.000
     162 ->171        -0.11344
     168 ->173         0.67483
 SavETr:  write IOETrn=   770 NScale= 10 NData=  16 NLR=1 NState=   20 LETran=     370.

 **********************************************************************

            Population analysis using the SCF Density.

 **********************************************************************

 Orbital symmetries:
       Occupied  (A) (A) (A) (A) (A) (A) (A) (A) (A) (A) (A) (A)
                 (A) (A) (A) (A) (A) (A) (A) (A) (A) (A) (A) (A)
                 (A) (A) (A) (A) (A) (A) (A) (A) (A) (A) (A) (A)
                 (A) (A) (A) (A) (A) (A) (A) (A) (A) (A) (A) (A)
                 (A) (A) (A) (A) (A) (A) (A) (A) (A) (A) (A) (A)
                 (A) (A) (A) (A) (A) (A) (A) (A) (A) (A) (A) (A)
                 (A) (A) (A) (A) (A) (A) (A) (A) (A) (A) (A) (A)
                 (A) (A) (A) (A) (A) (A) (A) (A) (A) (A) (A) (A)
                 (A) (A) (A) (A) (A) (A) (A) (A) (A) (A) (A) (A)
                 (A) (A) (A) (A) (A) (A) (A) (A) (A) (A) (A) (A)
                 (A) (A) (A) (A) (A) (A) (A) (A) (A) (A) (A) (A)
                 (A) (A) (A) (A) (A) (A) (A) (A) (A) (A) (A) (A)
                 (A) (A) (A) (A) (A) (A) (A) (A) (A) (A) (A) (A)
                 (A) (A) (A) (A) (A) (A) (A) (A) (A) (A) (A) (A)
                 (A) (A)
       Virtual   (A) (A) (A) (A) (A) (A) (A) (A) (A) (A) (A) (A)
                 (A) (A) (A) (A) (A) (A) (A) (A) (A) (A) (A) (A)
                 (A) (A) (A) (A) (A) (A) (A) (A) (A) (A) (A) (A)
                 (A) (A) (A) (A) (A) (A) (A) (A) (A) (A) (A) (A)
                 (A) (A) (A) (A) (A) (A) (A) (A) (A) (A) (A) (A)
                 (A) (A) (A) (A) (A) (A) (A) (A) (A) (A) (A) (A)
                 (A) (A) (A) (A) (A) (A) (A) (A) (A) (A) (A) (A)
                 (A) (A) (A) (A) (A) (A) (A) (A) (A) (A) (A) (A)
                 (A) (A) (A) (A) (A) (A) (A) (A) (A) (A) (A) (A)
                 (A) (A) (A) (A) (A) (A) (A) (A) (A) (A) (A) (A)
                 (A) (A) (A) (A) (A) (A) (A) (A) (A) (A) (A) (A)
                 (A) (A) (A) (A) (A) (A) (A) (A) (A) (A) (A) (A)
                 (A) (A) (A) (A) (A) (A) (A) (A) (A) (A) (A) (A)
                 (A) (A) (A) (A) (A) (A) (A) (A) (A) (A) (A) (A)
                 (A) (A) (A) (A) (A) (A) (A) (A) (A) (A) (A) (A)
                 (A) (A) (A) (A) (A) (A) (A) (A) (A) (A) (A) (A)
                 (A) (A) (A) (A) (A) (A) (A) (A) (A) (A) (A) (A)
                 (A) (A) (A) (A) (A) (A) (A) (A) (A) (A) (A) (A)
                 (A) (A) (A) (A) (A) (A) (A) (A) (A) (A) (A) (A)
                 (A) (A) (A) (A) (A) (A) (A) (A) (A) (A) (A) (A)
                 (A) (A) (A) (A) (A) (A) (A) (A) (A) (A) (A) (A)
                 (A) (A) (A) (A) (A) (A) (A) (A) (A) (A) (A) (A)
                 (A) (A) (A) (A) (A) (A) (A) (A) (A) (A) (A) (A)
                 (A) (A) (A) (A) (A) (A) (A) (A) (A) (A) (A) (A)
                 (A) (A) (A) (A) (A) (A) (A) (A) (A) (A) (A) (A)
                 (A) (A) (A) (A) (A) (A) (A) (A) (A) (A) (A) (A)
                 (A) (A) (A) (A) (A) (A) (A) (A) (A) (A) (A) (A)
                 (A) (A) (A) (A) (A) (A) (A) (A) (A) (A) (A) (A)
                 (A) (A) (A) (A) (A) (A) (A) (A) (A) (A) (A) (A)
                 (A) (A) (A) (A) (A) (A) (A) (A) (A) (A) (A) (A)
                 (A) (A) (A) (A) (A) (A) (A) (A) (A) (A) (A) (A)
                 (A) (A) (A) (A) (A) (A) (A) (A) (A) (A) (A) (A)
                 (A) (A) (A) (A) (A) (A) (A) (A) (A) (A) (A) (A)
                 (A) (A) (A) (A) (A) (A) (A) (A) (A) (A) (A) (A)
                 (A) (A) (A) (A) (A) (A) (A) (A) (A) (A) (A) (A)
                 (A) (A) (A) (A) (A) (A) (A) (A) (A) (A) (A) (A)
                 (A) (A) (A) (A) (A) (A) (A) (A) (A) (A) (A) (A)
                 (A) (A) (A) (A) (A) (A) (A) (A) (A) (A) (A) (A)
                 (A) (A) (A) (A) (A) (A) (A) (A) (A) (A) (A) (A)
                 (A) (A) (A) (A) (A) (A) (A) (A) (A) (A) (A) (A)
                 (A) (A) (A) (A) (A) (A) (A) (A) (A) (A) (A) (A)
                 (A) (A) (A) (A) (A) (A) (A) (A) (A) (A) (A) (A)
                 (A) (A) (A) (A) (A) (A) (A) (A) (A) (A) (A) (A)
                 (A) (A) (A) (A) (A) (A) (A) (A) (A) (A) (A) (A)
                 (A) (A) (A) (A) (A) (A) (A) (A) (A) (A) (A) (A)
                 (A) (A) (A) (A) (A) (A) (A) (A) (A) (A) (A) (A)
                 (A) (A) (A) (A) (A) (A) (A) (A) (A) (A) (A) (A)
                 (A) (A) (A) (A) (A) (A) (A) (A) (A) (A) (A) (A)
                 (A) (A) (A) (A) (A) (A) (A) (A) (A) (A) (A) (A)
                 (A) (A) (A) (A) (A) (A) (A) (A) (A) (A) (A) (A)
                 (A) (A) (A) (A) (A) (A) (A) (A) (A) (A) (A) (A)
                 (A) (A) (A) (A) (A) (A) (A) (A) (A) (A) (A) (A)
                 (A) (A) (A) (A) (A) (A) (A) (A) (A) (A) (A) (A)
                 (A) (A) (A) (A) (A) (A) (A) (A) (A) (A) (A) (A)
                 (A) (A) (A) (A) (A) (A) (A) (A) (A) (A) (A) (A)
                 (A) (A) (A) (A) (A) (A) (A) (A) (A) (A) (A) (A)
                 (A) (A) (A) (A) (A) (A) (A) (A) (A) (A) (A) (A)
                 (A) (A) (A) (A) (A) (A) (A) (A) (A) (A) (A) (A)
                 (A) (A) (A) (A)
 The electronic state is 1-A.
 Alpha  occ. eigenvalues --  -19.25339 -19.25339 -19.25337 -19.25337 -14.63497
 Alpha  occ. eigenvalues --  -14.63497 -14.45169 -14.45168 -14.39139 -14.39139
 Alpha  occ. eigenvalues --  -14.37421 -14.37421 -10.29670 -10.29625 -10.29386
 Alpha  occ. eigenvalues --  -10.29386 -10.28230 -10.28230 -10.27776 -10.27776
 Alpha  occ. eigenvalues --  -10.27129 -10.27129 -10.27046 -10.27045 -10.26296
 Alpha  occ. eigenvalues --  -10.26247 -10.26060 -10.26060 -10.25869 -10.25869
 Alpha  occ. eigenvalues --  -10.25863 -10.25863 -10.25853 -10.25853 -10.25471
 Alpha  occ. eigenvalues --  -10.25471 -10.25428 -10.25428 -10.24169 -10.24169
 Alpha  occ. eigenvalues --  -10.23895 -10.23895 -10.23108 -10.23076 -10.23035
 Alpha  occ. eigenvalues --  -10.23010 -10.22762 -10.22762 -10.22345 -10.22345
 Alpha  occ. eigenvalues --   -1.25930  -1.25930  -1.07985  -1.07984  -1.02853
 Alpha  occ. eigenvalues --   -1.01446  -0.97712  -0.97311  -0.95944  -0.93703
 Alpha  occ. eigenvalues --   -0.91309  -0.91276  -0.86189  -0.85562  -0.85438
 Alpha  occ. eigenvalues --   -0.82514  -0.81137  -0.80865  -0.80144  -0.78806
 Alpha  occ. eigenvalues --   -0.78676  -0.78243  -0.77393  -0.77306  -0.76206
 Alpha  occ. eigenvalues --   -0.76163  -0.73498  -0.71795  -0.71786  -0.68787
 Alpha  occ. eigenvalues --   -0.68075  -0.65479  -0.64302  -0.64051  -0.62919
 Alpha  occ. eigenvalues --   -0.62575  -0.61564  -0.61189  -0.60757  -0.60607
 Alpha  occ. eigenvalues --   -0.60242  -0.58422  -0.57835  -0.57609  -0.57320
 Alpha  occ. eigenvalues --   -0.56904  -0.56165  -0.55606  -0.54812  -0.54811
 Alpha  occ. eigenvalues --   -0.53681  -0.53482  -0.52847  -0.52755  -0.51571
 Alpha  occ. eigenvalues --   -0.51441  -0.51027  -0.49926  -0.49288  -0.48886
 Alpha  occ. eigenvalues --   -0.48074  -0.48000  -0.47141  -0.46538  -0.46508
 Alpha  occ. eigenvalues --   -0.46330  -0.45427  -0.45344  -0.45307  -0.44840
 Alpha  occ. eigenvalues --   -0.44742  -0.44062  -0.43908  -0.43244  -0.42842
 Alpha  occ. eigenvalues --   -0.42588  -0.41618  -0.41528  -0.41139  -0.41075
 Alpha  occ. eigenvalues --   -0.40502  -0.39892  -0.39820  -0.39415  -0.38915
 Alpha  occ. eigenvalues --   -0.38815  -0.38158  -0.37793  -0.37704  -0.37642
 Alpha  occ. eigenvalues --   -0.37439  -0.36831  -0.36753  -0.35185  -0.34796
 Alpha  occ. eigenvalues --   -0.33643  -0.32055  -0.32055  -0.31971  -0.31960
 Alpha  occ. eigenvalues --   -0.31520  -0.30301  -0.30157  -0.29894  -0.28964
 Alpha  occ. eigenvalues --   -0.28241  -0.28149  -0.28132  -0.27854  -0.27794
 Alpha  occ. eigenvalues --   -0.27567  -0.27336  -0.27097  -0.25780  -0.24723
 Alpha  occ. eigenvalues --   -0.24577  -0.24171  -0.23836  -0.20669  -0.19418
 Alpha virt. eigenvalues --   -0.13239  -0.11661  -0.10211  -0.09625  -0.04992
 Alpha virt. eigenvalues --   -0.04830  -0.03870  -0.03862  -0.01931  -0.01294
 Alpha virt. eigenvalues --   -0.01011   0.00717   0.01719   0.04407   0.04484
 Alpha virt. eigenvalues --    0.07612   0.08075   0.08108   0.09020   0.09159
 Alpha virt. eigenvalues --    0.10054   0.10059   0.10922   0.11023   0.11517
 Alpha virt. eigenvalues --    0.11730   0.12007   0.12822   0.13230   0.13297
 Alpha virt. eigenvalues --    0.13661   0.13767   0.14540   0.14774   0.14962
 Alpha virt. eigenvalues --    0.15224   0.15583   0.16060   0.16361   0.16853
 Alpha virt. eigenvalues --    0.17112   0.17136   0.17786   0.17869   0.18055
 Alpha virt. eigenvalues --    0.18242   0.18527   0.19038   0.19045   0.19077
 Alpha virt. eigenvalues --    0.19963   0.20812   0.21762   0.22012   0.22609
 Alpha virt. eigenvalues --    0.23052   0.23871   0.24002   0.25095   0.25401
 Alpha virt. eigenvalues --    0.25793   0.25854   0.26455   0.26476   0.26802
 Alpha virt. eigenvalues --    0.26807   0.27128   0.27696   0.27996   0.29826
 Alpha virt. eigenvalues --    0.29922   0.30089   0.30953   0.31195   0.32091
 Alpha virt. eigenvalues --    0.32495   0.32942   0.33252   0.33842   0.34988
 Alpha virt. eigenvalues --    0.36028   0.36897   0.37353   0.38203   0.38519
 Alpha virt. eigenvalues --    0.39139   0.39674   0.40716   0.42063   0.42823
 Alpha virt. eigenvalues --    0.43420   0.43807   0.44263   0.45211   0.45328
 Alpha virt. eigenvalues --    0.47562   0.47652   0.48072   0.48161   0.48602
 Alpha virt. eigenvalues --    0.48815   0.49244   0.49919   0.50316   0.50402
 Alpha virt. eigenvalues --    0.50811   0.51009   0.51270   0.51445   0.52004
 Alpha virt. eigenvalues --    0.52027   0.52295   0.52398   0.52711   0.52926
 Alpha virt. eigenvalues --    0.53625   0.53918   0.54054   0.54382   0.54411
 Alpha virt. eigenvalues --    0.55113   0.55641   0.55699   0.55851   0.55977
 Alpha virt. eigenvalues --    0.56200   0.56608   0.56647   0.56894   0.56965
 Alpha virt. eigenvalues --    0.57093   0.57467   0.57911   0.58032   0.58061
 Alpha virt. eigenvalues --    0.58399   0.59044   0.59051   0.59386   0.59468
 Alpha virt. eigenvalues --    0.59561   0.60150   0.60495   0.60557   0.60661
 Alpha virt. eigenvalues --    0.60698   0.60771   0.61780   0.61846   0.61951
 Alpha virt. eigenvalues --    0.62384   0.62464   0.62847   0.63007   0.63494
 Alpha virt. eigenvalues --    0.64044   0.64160   0.64271   0.64510   0.65008
 Alpha virt. eigenvalues --    0.65174   0.65581   0.65719   0.66845   0.67160
 Alpha virt. eigenvalues --    0.67408   0.67489   0.68981   0.69206   0.69731
 Alpha virt. eigenvalues --    0.69752   0.69919   0.70630   0.71302   0.71955
 Alpha virt. eigenvalues --    0.71959   0.73255   0.74793   0.74993   0.75364
 Alpha virt. eigenvalues --    0.75388   0.77214   0.77312   0.77399   0.77947
 Alpha virt. eigenvalues --    0.78094   0.78106   0.78358   0.78694   0.79150
 Alpha virt. eigenvalues --    0.79744   0.80117   0.80211   0.80269   0.80491
 Alpha virt. eigenvalues --    0.80737   0.80887   0.81034   0.81610   0.81802
 Alpha virt. eigenvalues --    0.81850   0.82197   0.82270   0.82728   0.83036
 Alpha virt. eigenvalues --    0.83037   0.83626   0.83746   0.83994   0.84189
 Alpha virt. eigenvalues --    0.84249   0.84455   0.84876   0.85261   0.85654
 Alpha virt. eigenvalues --    0.86208   0.86592   0.86756   0.87108   0.87655
 Alpha virt. eigenvalues --    0.88030   0.89605   0.90539   0.90689   0.91504
 Alpha virt. eigenvalues --    0.91899   0.92380   0.92775   0.93146   0.93337
 Alpha virt. eigenvalues --    0.93805   0.93900   0.93931   0.95471   0.95683
 Alpha virt. eigenvalues --    0.95989   0.96600   0.96745   0.97081   0.97496
 Alpha virt. eigenvalues --    0.97776   0.97932   0.98423   0.98673   0.98913
 Alpha virt. eigenvalues --    0.99257   0.99519   1.00002   1.00028   1.00485
 Alpha virt. eigenvalues --    1.00749   1.01882   1.02749   1.03362   1.03456
 Alpha virt. eigenvalues --    1.04890   1.05401   1.06069   1.06657   1.07213
 Alpha virt. eigenvalues --    1.07537   1.08276   1.08685   1.09614   1.10627
 Alpha virt. eigenvalues --    1.10838   1.11681   1.12255   1.12382   1.12941
 Alpha virt. eigenvalues --    1.13392   1.14260   1.15391   1.16088   1.16236
 Alpha virt. eigenvalues --    1.16629   1.16656   1.18313   1.19359   1.19559
 Alpha virt. eigenvalues --    1.19988   1.20141   1.20603   1.20990   1.21841
 Alpha virt. eigenvalues --    1.21842   1.22334   1.22706   1.23757   1.23944
 Alpha virt. eigenvalues --    1.24432   1.25236   1.25414   1.26503   1.26625
 Alpha virt. eigenvalues --    1.27367   1.28281   1.28958   1.29315   1.29886
 Alpha virt. eigenvalues --    1.30746   1.30768   1.30960   1.32224   1.32826
 Alpha virt. eigenvalues --    1.33288   1.33750   1.33813   1.33952   1.34060
 Alpha virt. eigenvalues --    1.34077   1.34896   1.35212   1.35418   1.35599
 Alpha virt. eigenvalues --    1.35862   1.36059   1.36074   1.37298   1.37342
 Alpha virt. eigenvalues --    1.37650   1.37864   1.38937   1.39060   1.39302
 Alpha virt. eigenvalues --    1.39425   1.39621   1.40504   1.40892   1.41153
 Alpha virt. eigenvalues --    1.41347   1.42539   1.44387   1.44490   1.44773
 Alpha virt. eigenvalues --    1.45906   1.46228   1.46299   1.46802   1.47391
 Alpha virt. eigenvalues --    1.49192   1.49348   1.50476   1.50495   1.51016
 Alpha virt. eigenvalues --    1.53725   1.55471   1.55760   1.59001   1.59501
 Alpha virt. eigenvalues --    1.60054   1.60233   1.61666   1.63727   1.63741
 Alpha virt. eigenvalues --    1.65415   1.65849   1.67281   1.67409   1.67857
 Alpha virt. eigenvalues --    1.68621   1.68781   1.68828   1.69046   1.69515
 Alpha virt. eigenvalues --    1.69617   1.72410   1.72567   1.72979   1.73252
 Alpha virt. eigenvalues --    1.73894   1.74257   1.74666   1.75322   1.75850
 Alpha virt. eigenvalues --    1.76875   1.77841   1.77877   1.78784   1.78903
 Alpha virt. eigenvalues --    1.79005   1.79093   1.79175   1.79346   1.80930
 Alpha virt. eigenvalues --    1.81044   1.81692   1.82449   1.82999   1.83490
 Alpha virt. eigenvalues --    1.83570   1.84796   1.84848   1.85774   1.85973
 Alpha virt. eigenvalues --    1.86132   1.86576   1.87496   1.87831   1.88563
 Alpha virt. eigenvalues --    1.88616   1.89596   1.89832   1.90097   1.90217
 Alpha virt. eigenvalues --    1.90713   1.90901   1.91177   1.91640   1.91776
 Alpha virt. eigenvalues --    1.91912   1.91943   1.92433   1.92450   1.92941
 Alpha virt. eigenvalues --    1.93250   1.93695   1.94435   1.95072   1.95569
 Alpha virt. eigenvalues --    1.95908   1.96151   1.96438   1.96887   1.97005
 Alpha virt. eigenvalues --    1.98263   1.99227   1.99329   2.00375   2.01386
 Alpha virt. eigenvalues --    2.01893   2.02579   2.03210   2.03222   2.03518
 Alpha virt. eigenvalues --    2.03616   2.04216   2.04649   2.05948   2.07074
 Alpha virt. eigenvalues --    2.07856   2.08800   2.09302   2.09396   2.09889
 Alpha virt. eigenvalues --    2.09933   2.10089   2.10497   2.10673   2.11246
 Alpha virt. eigenvalues --    2.12219   2.12694   2.12838   2.13159   2.13246
 Alpha virt. eigenvalues --    2.13578   2.15261   2.15994   2.16083   2.16964
 Alpha virt. eigenvalues --    2.18606   2.19157   2.19935   2.20034   2.20792
 Alpha virt. eigenvalues --    2.21633   2.22936   2.24038   2.24052   2.24778
 Alpha virt. eigenvalues --    2.25033   2.25823   2.26083   2.26919   2.27119
 Alpha virt. eigenvalues --    2.27208   2.27604   2.29396   2.30040   2.30072
 Alpha virt. eigenvalues --    2.30436   2.31938   2.32355   2.33047   2.33781
 Alpha virt. eigenvalues --    2.34455   2.35271   2.36089   2.36194   2.36935
 Alpha virt. eigenvalues --    2.36974   2.37396   2.37760   2.38063   2.38344
 Alpha virt. eigenvalues --    2.38712   2.38863   2.39084   2.39397   2.39422
 Alpha virt. eigenvalues --    2.39840   2.40149   2.40545   2.40994   2.41123
 Alpha virt. eigenvalues --    2.41422   2.41844   2.42337   2.43296   2.43660
 Alpha virt. eigenvalues --    2.44120   2.44604   2.45595   2.46098   2.46323
 Alpha virt. eigenvalues --    2.46955   2.47913   2.48751   2.49120   2.49829
 Alpha virt. eigenvalues --    2.50530   2.50716   2.50979   2.51639   2.52385
 Alpha virt. eigenvalues --    2.52638   2.52943   2.53779   2.54775   2.54788
 Alpha virt. eigenvalues --    2.55122   2.55555   2.56528   2.56688   2.56773
 Alpha virt. eigenvalues --    2.57060   2.57570   2.58350   2.58526   2.58736
 Alpha virt. eigenvalues --    2.58999   2.59508   2.59669   2.60013   2.60399
 Alpha virt. eigenvalues --    2.60707   2.61502   2.61814   2.62651   2.64413
 Alpha virt. eigenvalues --    2.64668   2.65209   2.65254   2.65818   2.67543
 Alpha virt. eigenvalues --    2.67639   2.68258   2.68372   2.69519   2.69949
 Alpha virt. eigenvalues --    2.70285   2.70333   2.71144   2.71653   2.72299
 Alpha virt. eigenvalues --    2.72847   2.73223   2.73343   2.73966   2.74196
 Alpha virt. eigenvalues --    2.75724   2.75813   2.76523   2.76719   2.77829
 Alpha virt. eigenvalues --    2.78558   2.80302   2.80418   2.81089   2.82180
 Alpha virt. eigenvalues --    2.82355   2.83031   2.83509   2.86069   2.86625
 Alpha virt. eigenvalues --    2.87523   2.87758   2.87879   2.88974   2.89066
 Alpha virt. eigenvalues --    2.89068   2.89394   2.89529   2.90919   2.91294
 Alpha virt. eigenvalues --    2.94660   2.96971   2.97382   2.98419   2.99263
 Alpha virt. eigenvalues --    3.01098   3.02698   3.03214   3.04466   3.04475
 Alpha virt. eigenvalues --    3.05516   3.05958   3.06054   3.06969   3.08634
 Alpha virt. eigenvalues --    3.09925   3.10428   3.11436   3.13738   3.14666
 Alpha virt. eigenvalues --    3.17890   3.19729   3.19822   3.21406   3.24390
 Alpha virt. eigenvalues --    3.24594   3.24780   3.25783   3.27531   3.27699
 Alpha virt. eigenvalues --    3.29791   3.30500   3.33104   3.33805   3.34368
 Alpha virt. eigenvalues --    3.35087   3.37475   3.37505   3.39625   3.39902
 Alpha virt. eigenvalues --    3.45843   3.47283   3.50211   3.52247   3.52299
 Alpha virt. eigenvalues --    3.55725   3.59927   3.65975   3.68718   3.72546
 Alpha virt. eigenvalues --    3.72631   3.74493   3.74508   3.76008   3.81037
 Alpha virt. eigenvalues --    3.81082   3.86247   3.94206   3.94231   4.00304
 Alpha virt. eigenvalues --    4.00395   4.02621   4.08874   4.09236   4.10445
 Alpha virt. eigenvalues --    4.12858   4.13846   4.13988   4.15027   4.15379
 Alpha virt. eigenvalues --    4.15999   4.16332   4.17079   4.17166   4.17811
 Alpha virt. eigenvalues --    4.19965   4.20292   4.20648   4.24541   4.25431
 Alpha virt. eigenvalues --    4.28823   4.32875   4.33455   4.36769   4.39355
 Alpha virt. eigenvalues --    4.42021   4.43375   4.44214   4.45858   4.46013
 Alpha virt. eigenvalues --    4.47722   4.48582   4.51829   4.51923   4.58313
 Alpha virt. eigenvalues --    4.60473   4.66210   4.71740   4.73056   4.78833
 Alpha virt. eigenvalues --    4.79189   4.86037   4.86297   4.87237   4.88252
          Condensed to atoms (all electrons):
 Mulliken charges:
               1
     1  C    0.331663
     2  C   -0.182123
     3  C   -0.162475
     4  C    0.283973
     5  N   -0.678424
     6  H    0.325597
     7  H    0.165612
     8  H    0.169921
     9  C    0.331652
    10  C   -0.182121
    11  N   -0.678412
    12  C   -0.162472
    13  H    0.165614
    14  C    0.283973
    15  H    0.325598
    16  H    0.169918
    17  C   -0.004532
    18  C   -0.004523
    19  C    0.226943
    20  C   -0.137087
    21  N   -0.635640
    22  C   -0.194654
    23  H    0.152779
    24  C    0.248575
    25  H    0.147696
    26  C    0.226951
    27  C   -0.137084
    28  N   -0.635639
    29  C   -0.194659
    30  H    0.152779
    31  C    0.248574
    32  H    0.147694
    33  N   -0.483552
    34  N   -0.483545
    35  C   -0.010637
    36  C   -0.142149
    37  C   -0.140745
    38  C   -0.117022
    39  C   -0.117226
    40  C    0.230114
    41  C   -0.010657
    42  C   -0.140746
    43  C   -0.142123
    44  C   -0.117231
    45  C   -0.117017
    46  C    0.230121
    47  C    0.079707
    48  H    0.136882
    49  C    0.079707
    50  H    0.136883
    51  C    0.214170
    52  C   -0.142546
    53  C    0.214165
    54  C   -0.146847
    55  H    0.148653
    56  C   -0.142546
    57  C   -0.146845
    58  H    0.146110
    59  H    0.148653
    60  H    0.146110
    61  H    0.172930
    62  H    0.187629
    63  H    0.187316
    64  H    0.172602
    65  H    0.172607
    66  H    0.172931
    67  H    0.187317
    68  H    0.187630
    69  N    0.400219
    70  N    0.400225
    71  O   -0.416626
    72  O   -0.416831
    73  O   -0.416831
    74  O   -0.416623
 Sum of Mulliken charges =  -0.00000
 Mulliken charges with hydrogens summed into heavy atoms:
               1
     1  C    0.331663
     2  C   -0.016511
     3  C    0.007446
     4  C    0.283973
     5  N   -0.352828
     9  C    0.331652
    10  C   -0.016507
    11  N   -0.352814
    12  C    0.007446
    14  C    0.283973
    17  C   -0.004532
    18  C   -0.004523
    19  C    0.226943
    20  C    0.015692
    21  N   -0.635640
    22  C   -0.046958
    24  C    0.248575
    26  C    0.226951
    27  C    0.015695
    28  N   -0.635639
    29  C   -0.046965
    31  C    0.248574
    33  N   -0.483552
    34  N   -0.483545
    35  C   -0.010637
    36  C    0.030458
    37  C    0.032186
    38  C    0.070295
    39  C    0.070404
    40  C    0.230114
    41  C   -0.010657
    42  C    0.032184
    43  C    0.030479
    44  C    0.070398
    45  C    0.070299
    46  C    0.230121
    47  C    0.216589
    49  C    0.216590
    51  C    0.214170
    52  C    0.006108
    53  C    0.214165
    54  C   -0.000737
    56  C    0.006107
    57  C   -0.000735
    69  N    0.400219
    70  N    0.400225
    71  O   -0.416626
    72  O   -0.416831
    73  O   -0.416831
    74  O   -0.416623
 Electronic spatial extent (au):  <R**2>=          47891.8334
 Charge=             -0.0000 electrons
 Dipole moment (field-independent basis, Debye):
    X=             -0.0001    Y=              1.4656    Z=              0.4266  Tot=              1.5264
 Quadrupole moment (field-independent basis, Debye-Ang):
   XX=           -370.3947   YY=           -257.6623   ZZ=           -279.3582
   XY=             -0.0009   XZ=              0.0014   YZ=             10.4541
 Traceless Quadrupole moment (field-independent basis, Debye-Ang):
   XX=            -67.9230   YY=             44.8095   ZZ=             23.1136
   XY=             -0.0009   XZ=              0.0014   YZ=             10.4541
 Octapole moment (field-independent basis, Debye-Ang**2):
  XXX=             -0.0103  YYY=            279.5793  ZZZ=              9.3959  XYY=              0.0171
  XXY=            750.9857  XXZ=            -43.4590  XZZ=             -0.0160  YZZ=            -40.0928
  YYZ=            -24.7342  XYZ=             -0.0011
 Hexadecapole moment (field-independent basis, Debye-Ang**3):
 XXXX=         -59957.8708 YYYY=         -16775.1982 ZZZZ=          -1094.5460 XXXY=              0.0458
 XXXZ=              0.0996 YYYX=             -0.1598 YYYZ=             15.6037 ZZZX=             -0.0061
 ZZZY=            -19.4930 XXYY=         -13042.2213 XXZZ=          -7320.9597 YYZZ=          -3326.3842
 XXYZ=            363.7255 YYXZ=             -0.0077 ZZXY=              0.0641
 N-N= 5.545491575761D+03 E-N=-1.620474956735D+04  KE= 2.180106223528D+03
 Unable to Open any file for archive entry.
 1\1\GINC-HAMSI92\SP\RHSEH1PBE TD-FC\6-31G(d,p)\C38H24N8O4\PINARS\02-Ap
 r-2026\0\\# td=(nstates=20) hseh1pbe/6-31g(d,p) scrf=(cpcm,solvent=dic
 hloromethane) geom=connectivity\\Title Card Required\\0,1\C,0,0.71554,
 -1.873859,-0.860055\C,0,1.488357,-2.993275,-1.245754\C,0,2.812278,-2.7
 00655,-0.997889\C,0,2.870446,-1.396146,-0.461992\N,0,1.577482,-0.92088
 8,-0.410031\H,0,1.406173,0.048221,-0.139889\H,0,1.097892,-3.917143,-1.
 644142\H,0,3.663469,-3.338928,-1.181862\C,0,-0.715498,-1.873835,-0.860
 152\C,0,-1.488306,-2.993203,-1.246004\N,0,-1.577451,-0.920908,-0.41005
 4\C,0,-2.812239,-2.700598,-0.998176\H,0,-1.097838,-3.916974,-1.644614\
 C,0,-2.870414,-1.39616,-0.462105\H,0,-1.406161,0.048177,-0.139794\H,0,
 -3.663429,-3.338829,-1.1823\C,0,-4.015726,-0.685307,-0.027537\C,0,4.01
 5753,-0.685255,-0.02748\C,0,4.006839,0.661332,0.337718\C,0,5.094028,1.
 394051,0.950119\N,0,2.906479,1.469026,0.161728\C,0,4.626008,2.659656,1
 .134737\H,0,6.061075,0.996019,1.223853\C,0,3.278713,2.665507,0.615451\
 H,0,5.14252,3.507087,1.567042\C,0,-4.006808,0.66127,0.337722\C,0,-5.09
 4021,1.393958,0.950099\N,0,-2.906462,1.46898,0.161747\C,0,-4.626018,2.
 659565,1.134751\H,0,-6.061085,0.995923,1.22377\C,0,-3.278688,2.665431,
 0.615561\H,0,-5.142573,3.506992,1.567014\N,0,-1.351359,3.916493,-0.070
 916\N,0,1.351333,3.916523,-0.070985\C,0,5.29113,-1.436635,0.041321\C,0
 ,5.384142,-2.622224,0.785903\C,0,6.425886,-0.962628,-0.633595\C,0,6.58
 1181,-3.317794,0.863363\C,0,7.627108,-1.653106,-0.571487\C,0,7.68483,-
 2.821082,0.179502\C,0,-5.2911,-1.436676,0.041213\C,0,-6.425853,-0.9627
 01,-0.633715\C,0,-5.384153,-2.622183,0.785939\C,0,-7.62711,-1.65314,-0
 .57149\C,0,-6.581181,-3.317733,0.863449\C,0,-7.684834,-2.821066,0.1795
 52\C,0,2.482765,3.867343,0.53549\H,0,2.921011,4.751047,1.018753\C,0,-2
 .482792,3.86729,0.535563\H,0,-2.921076,4.750986,1.018807\C,0,-0.710543
 ,5.132181,-0.232108\C,0,-1.392354,6.344299,-0.439086\C,0,0.71048,5.132
 196,-0.232149\C,0,-0.699172,7.527183,-0.641604\H,0,-2.476996,6.336168,
 -0.488953\C,0,1.39225,6.344333,-0.439164\C,0,0.699027,7.527201,-0.6416
 43\H,0,-1.244389,8.447431,-0.827342\H,0,2.476889,6.336234,-0.489084\H,
 0,1.244212,8.447463,-0.827404\H,0,-6.356131,-0.055838,-1.224402\H,0,-8
 .5084,-1.304857,-1.095637\H,0,-6.671342,-4.226975,1.444656\H,0,-4.5158
 3,-2.987133,1.323823\H,0,4.51581,-2.987263,1.323714\H,0,6.356129,-0.05
 5735,-1.224239\H,0,6.6713,-4.227042,1.444572\H,0,8.508413,-1.304849,-1
 .095628\N,0,-8.945764,-3.550547,0.252537\N,0,8.945783,-3.550514,0.2524
 93\O,0,9.905749,-3.09557,-0.352725\O,0,8.975097,-4.577661,0.915067\O,0
 ,-8.97498,-4.577862,0.914858\O,0,-9.905821,-3.095477,-0.352443\\Versio
 n=ES64L-G16RevC.02\State=1-A\HF=-2198.9541956\RMSD=4.502e-09\PG=C01 [X
 (C38H24N8O4)]\\@
 The archive entry for this job was punched.


 BREAD HAS TO MOLD IN ORDER TO GET PENICILLIN.
          -- JERRY BOATZ
 Job cpu time:       0 days  5 hours  0 minutes 35.7 seconds.
 Elapsed time:       0 days  0 hours  6 minutes 42.3 seconds.
 File lengths (MBytes):  RWF=   8528 Int=      0 D2E=      0 Chk=    549 Scr=      1
 Normal termination of Gaussian 16 at Thu Apr  2 14:06:51 2026.
